TITLE     = "| | |"
VARIABLES = "V1"
"V2"
ZONE T="ZONE 001"
 I=999, J=1, K=1,F=POINT
DT=(SINGLE SINGLE )
 9.999999776E-003 1.489460119E-004
 1.999999955E-002 1.703896414E-004
 2.999999933E-002 1.704317983E-004
 3.999999911E-002 1.704686874E-004
 5.000000075E-002 1.705055765E-004
 5.999999866E-002 1.705477334E-004
 7.000000030E-002 1.705846225E-004
 7.999999821E-002 1.706215116E-004
 9.000000358E-002 1.706636831E-004
 1.000000015E-001 1.707005722E-004
 1.099999994E-001 1.707374613E-004
 1.199999973E-001 1.707796328E-004
 1.299999952E-001 1.708165219E-004
 1.400000006E-001 1.708533964E-004
 1.500000060E-001 1.708902855E-004
 1.599999964E-001 1.709324424E-004
 1.700000018E-001 1.709693461E-004
 1.800000072E-001 1.710062352E-004
 1.899999976E-001 1.710483921E-004
 2.000000030E-001 1.710852812E-004
 2.099999934E-001 1.711221703E-004
 2.199999988E-001 1.711590594E-004
 2.300000042E-001 1.711959485E-004
 2.399999946E-001 1.712381054E-004
 2.500000000E-001 1.712749945E-004
 2.599999905E-001 1.713118982E-004
 2.700000107E-001 1.713487873E-004
 2.800000012E-001 1.713909296E-004
 2.899999917E-001 1.714278187E-004
 3.000000119E-001 1.714647224E-004
 3.100000024E-001 1.715016115E-004
 3.199999928E-001 1.715385006E-004
 3.300000131E-001 1.715753897E-004
 3.400000036E-001 1.716175466E-004
 3.499999940E-001 1.716544502E-004
 3.600000143E-001 1.716913393E-004
 3.700000048E-001 1.717282139E-004
 3.799999952E-001 1.717651030E-004
 3.899999857E-001 1.718019921E-004
 4.000000060E-001 1.718388812E-004
 4.099999964E-001 1.718757849E-004
 4.199999869E-001 1.719179418E-004
 4.300000072E-001 1.719548309E-004
 4.399999976E-001 1.719917200E-004
 4.499999881E-001 1.720286091E-004
 4.600000083E-001 1.720654982E-004
 4.699999988E-001 1.721023873E-004
 4.799999893E-001 1.721392764E-004
 4.900000095E-001 1.721761655E-004
 5.000000000E-001 1.722130546E-004
 5.099999905E-001 1.722499437E-004
 5.199999809E-001 1.722868474E-004
 5.299999714E-001 1.723237365E-004
 5.400000215E-001 1.723606256E-004
 5.500000119E-001 1.724027679E-004
 5.600000024E-001 1.724396570E-004
 5.699999928E-001 1.724765607E-004
 5.799999833E-001 1.725134498E-004
 5.899999738E-001 1.725503389E-004
 6.000000238E-001 1.725872280E-004
 6.100000143E-001 1.726241171E-004
 6.200000048E-001 1.726610062E-004
 6.299999952E-001 1.726979099E-004
 6.399999857E-001 1.727347990E-004
 6.499999762E-001 1.727716881E-004
 6.600000262E-001 1.728085626E-004
 6.700000167E-001 1.728401985E-004
 6.800000072E-001 1.728770731E-004
 6.899999976E-001 1.729139622E-004
 6.999999881E-001 1.729508513E-004
 7.099999785E-001 1.729877549E-004
 7.200000286E-001 1.730246440E-004
 7.300000191E-001 1.730615331E-004
 7.400000095E-001 1.730984222E-004
 7.500000000E-001 1.731353113E-004
 7.599999905E-001 1.731722004E-004
 7.699999809E-001 1.732090896E-004
 7.799999714E-001 1.732459787E-004
 7.900000215E-001 1.732828678E-004
 8.000000119E-001 1.733144891E-004
 8.100000024E-001 1.733513782E-004
 8.199999928E-001 1.733882673E-004
 8.299999833E-001 1.734251564E-004
 8.399999738E-001 1.734620455E-004
 8.500000238E-001 1.734989346E-004
 8.600000143E-001 1.735358383E-004
 8.700000048E-001 1.735727274E-004
 8.799999952E-001 1.736043487E-004
 8.899999857E-001 1.736412378E-004
 8.999999762E-001 1.736781269E-004
 9.100000262E-001 1.737150160E-004
 9.200000167E-001 1.737518905E-004
 9.300000072E-001 1.737887796E-004
 9.399999976E-001 1.738204010E-004
 9.499999881E-001 1.738572901E-004
 9.599999785E-001 1.738941792E-004
 9.700000286E-001 1.739310828E-004
 9.800000191E-001 1.739626896E-004
 9.900000095E-001 1.739995932E-004
 1.000000000E+000 1.740364823E-004
 1.009999990E+000 1.740733715E-004
 1.019999981E+000 1.741102606E-004
 1.029999971E+000 1.822682243E-004
 1.039999962E+000 2.026473230E-004
 1.049999952E+000 2.129290806E-004
 1.059999943E+000 2.209447557E-004
 1.070000052E+000 2.283859794E-004
 1.080000043E+000 2.285757073E-004
 1.090000033E+000 2.360538347E-004
 1.100000024E+000 2.435688657E-004
 1.110000014E+000 2.511260391E-004
 1.120000005E+000 2.660453902E-004
 1.129999995E+000 2.737237955E-004
 1.139999986E+000 2.793942986E-004
 1.149999976E+000 2.845114795E-004
 1.159999967E+000 2.896602673E-004
 1.169999957E+000 2.901135013E-004
 1.179999948E+000 2.953044313E-004
 1.190000057E+000 3.005322942E-004
 1.200000048E+000 3.057970316E-004
 1.210000038E+000 3.158574691E-004
 1.220000029E+000 3.212328593E-004
 1.230000019E+000 3.266504209E-004
 1.240000010E+000 3.307557490E-004
 1.250000000E+000 3.314461210E-004
 1.259999990E+000 3.351509222E-004
 1.269999981E+000 3.388820624E-004
 1.279999971E+000 3.426395997E-004
 1.289999962E+000 3.494589473E-004
 1.299999952E+000 3.533060662E-004
 1.309999943E+000 3.571795241E-004
 1.320000052E+000 3.610898566E-004
 1.330000043E+000 3.650318249E-004
 1.340000033E+000 3.659382637E-004
 1.350000024E+000 3.699223744E-004
 1.360000014E+000 3.739433887E-004
 1.370000005E+000 3.779960098E-004
 1.379999995E+000 3.848101187E-004
 1.389999986E+000 3.884411417E-004
 1.399999976E+000 3.921038006E-004
 1.409999967E+000 3.958033340E-004
 1.419999957E+000 3.969153331E-004
 1.429999948E+000 4.006517411E-004
 1.440000057E+000 4.044250527E-004
 1.450000048E+000 4.082300002E-004
 1.460000038E+000 4.120665544E-004
 1.470000029E+000 4.185960861E-004
 1.480000019E+000 4.225275188E-004
 1.490000010E+000 4.265010939E-004
 1.500000000E+000 4.299845896E-004
 1.509999990E+000 4.313389363E-004
 1.519999981E+000 4.346327332E-004
 1.529999971E+000 4.379580787E-004
 1.539999962E+000 4.413098213E-004
 1.549999952E+000 4.466535756E-004
 1.559999943E+000 4.500843352E-004
 1.570000052E+000 4.535467306E-004
 1.580000043E+000 4.570407327E-004
 1.590000033E+000 4.585743300E-004
 1.600000024E+000 4.621052067E-004
 1.610000014E+000 4.656624806E-004
 1.620000005E+000 4.692565999E-004
 1.629999995E+000 4.728771164E-004
 1.639999986E+000 4.785581550E-004
 1.649999976E+000 4.822682240E-004
 1.659999967E+000 4.860152258E-004
 1.669999957E+000 4.897938343E-004
 1.679999948E+000 4.915487370E-004
 1.690000057E+000 4.953747266E-004
 1.700000048E+000 4.992270842E-004
 1.710000038E+000 5.028897431E-004
 1.720000029E+000 5.082018906E-004
 1.730000019E+000 5.118277040E-004
 1.740000010E+000 5.154850078E-004
 1.750000000E+000 5.191740347E-004
 1.759999990E+000 5.211345269E-004
 1.769999981E+000 5.248603993E-004
 1.779999971E+000 5.285809748E-004
 1.789999962E+000 5.323754158E-004
 1.799999952E+000 5.362225347E-004
 1.809999943E+000 5.418614019E-004
 1.820000052E+000 5.458139349E-004
 1.830000043E+000 5.497137317E-004
 1.840000033E+000 5.537188845E-004
 1.850000024E+000 5.559323472E-004
 1.860000014E+000 5.599374999E-004
 1.870000005E+000 5.642588949E-004
 1.879999995E+000 5.686857039E-004
 1.889999986E+000 5.754312733E-004
 1.899999976E+000 5.800161744E-004
 1.909999967E+000 5.846538115E-004
 1.919999957E+000 5.893441266E-004
 1.929999948E+000 5.940343835E-004
 1.940000057E+000 5.965639721E-004
 1.950000048E+000 6.013069651E-004
 1.960000038E+000 6.061553722E-004
 1.970000029E+000 6.133225979E-004
 1.980000019E+000 6.159576005E-004
 1.990000010E+000 6.209114217E-004
 2.000000000E+000 6.259179208E-004
 2.009999990E+000 6.309770979E-004
 2.019999981E+000 6.360890111E-004
 2.029999971E+000 6.412536022E-004
 2.039999962E+000 6.464708713E-004
 2.049999952E+000 6.517408765E-004
 2.059999943E+000 6.598039763E-004
 2.069999933E+000 6.658118218E-004
 2.079999924E+000 6.719250232E-004
 2.089999914E+000 6.780381664E-004
 2.099999905E+000 6.842567818E-004
 2.109999895E+000 6.905281334E-004
 2.119999886E+000 6.969047827E-004
 2.130000114E+000 7.033342263E-004
 2.140000105E+000 7.098162896E-004
 2.150000095E+000 7.132418104E-004
 2.160000086E+000 7.198292878E-004
 2.170000076E+000 7.265222375E-004
 2.180000067E+000 7.332678069E-004
 2.190000057E+000 7.400660543E-004
 2.200000048E+000 7.469697739E-004
 2.210000038E+000 7.539262297E-004
 2.220000029E+000 7.609879831E-004
 2.230000019E+000 7.722658338E-004
 2.240000010E+000 7.800654275E-004
 2.250000000E+000 7.880231133E-004
 2.259999990E+000 7.960335352E-004
 2.269999981E+000 8.042019908E-004
 2.279999971E+000 8.124231827E-004
 2.289999962E+000 8.207497885E-004
 2.299999952E+000 8.291818085E-004
 2.309999943E+000 8.377719205E-004
 2.319999933E+000 8.424094995E-004
 2.329999924E+000 8.511577034E-004
 2.339999914E+000 8.599586436E-004
 2.349999905E+000 8.688649395E-004
 2.359999895E+000 8.779292693E-004
 2.369999886E+000 8.870463935E-004
 2.380000114E+000 8.963216096E-004
 2.390000105E+000 9.079155861E-004
 2.400000095E+000 9.301023092E-004
 2.410000086E+000 9.442785522E-004
 2.420000076E+000 9.586657397E-004
 2.430000067E+000 9.733689949E-004
 2.440000057E+000 9.883358143E-004
 2.450000048E+000 1.003566082E-003
 2.460000038E+000 1.023539458E-003
 2.470000029E+000 1.048255712E-003
 2.480000019E+000 1.073604333E-003
 2.490000010E+000 1.081614872E-003
 2.500000000E+000 1.107701333E-003
 2.509999990E+000 1.148912706E-003
 2.519999981E+000 1.205723383E-003
 2.529999971E+000 1.277922303E-003
 2.539999962E+000 1.366669079E-003
 2.549999952E+000 1.509011723E-003
 2.559999943E+000 1.712433761E-003
 2.569999933E+000 2.127920510E-003
 2.579999924E+000 2.518638503E-003
 2.589999914E+000 3.134069033E-003
 2.599999905E+000 3.957453649E-003
 2.609999895E+000 5.123915616E-003
 2.619999886E+000 6.615958177E-003
 2.630000114E+000 8.441486396E-003
 2.640000105E+000 1.088255085E-002
 2.650000095E+000 1.412518136E-002
 2.660000086E+000 1.726926304E-002
 2.670000076E+000 2.221937291E-002
 2.680000067E+000 2.859554626E-002
 2.690000057E+000 3.659857064E-002
 2.700000048E+000 4.646559060E-002
 2.710000038E+000 5.861821026E-002
 2.720000029E+000 7.342690974E-002
 2.730000019E+000 9.127113223E-002
 2.740000010E+000 1.125672013E-001
 2.750000000E+000 1.390911192E-001
 2.759999990E+000 1.657783985E-001
 2.769999981E+000 1.950426996E-001
 2.779999971E+000 2.278431803E-001
 2.789999962E+000 2.644011676E-001
 2.799999952E+000 3.053859770E-001
 2.809999943E+000 3.513561785E-001
 2.819999933E+000 4.013526738E-001
 2.829999924E+000 4.530777037E-001
 2.839999914E+000 5.112901330E-001
 2.849999905E+000 5.742192268E-001
 2.859999895E+000 6.420440674E-001
 2.869999886E+000 7.141376734E-001
 2.880000114E+000 7.900784016E-001
 2.890000105E+000 8.710783124E-001
 2.900000095E+000 9.572954774E-001
 2.910000086E+000 1.048361063E+000
 2.920000076E+000 1.143695354E+000
 2.930000067E+000 1.244773984E+000
 2.940000057E+000 1.350490212E+000
 2.950000048E+000 1.460369706E+000
 2.960000038E+000 1.575413823E+000
 2.970000029E+000 1.695622444E+000
 2.980000019E+000 1.819730997E+000
 2.990000010E+000 1.946790695E+000
 3.000000000E+000 2.085813522E+000
 3.009999990E+000 2.222833157E+000
 3.019999981E+000 2.364438057E+000
 3.029999971E+000 2.509257793E+000
 3.039999962E+000 2.656238079E+000
 3.049999952E+000 2.807118177E+000
 3.059999943E+000 2.961792707E+000
 3.069999933E+000 3.121104717E+000
 3.079999924E+000 3.285528898E+000
 3.089999914E+000 3.439149380E+000
 3.099999905E+000 3.609950066E+000
 3.109999895E+000 3.784229040E+000
 3.119999886E+000 3.953817368E+000
 3.130000114E+000 4.111706734E+000
 3.140000105E+000 4.270017624E+000
 3.150000095E+000 4.428433895E+000
 3.160000086E+000 4.586375237E+000
 3.170000076E+000 4.792695999E+000
 3.180000067E+000 4.952166557E+000
 3.190000057E+000 5.110635281E+000
 3.200000048E+000 5.267734051E+000
 3.210000038E+000 5.422829628E+000
 3.220000029E+000 5.576186657E+000
 3.230000019E+000 5.727436066E+000
 3.240000010E+000 5.875523090E+000
 3.250000000E+000 6.020974636E+000
 3.259999990E+000 6.092647076E+000
 3.269999981E+000 6.226505280E+000
 3.279999971E+000 6.351931095E+000
 3.289999962E+000 6.464181900E+000
 3.299999952E+000 6.570635796E+000
 3.309999943E+000 6.670765877E+000
 3.319999933E+000 6.764044762E+000
 3.329999924E+000 6.850472927E+000
 3.339999914E+000 7.032814980E+000
 3.349999905E+000 7.120296955E+000
 3.359999895E+000 7.218318939E+000
 3.369999886E+000 7.311070919E+000
 3.380000114E+000 7.398025990E+000
 3.390000105E+000 7.478656769E+000
 3.400000095E+000 7.553491116E+000
 3.410000086E+000 7.622001171E+000
 3.420000076E+000 7.684187412E+000
 3.430000067E+000 7.584583759E+000
 3.440000057E+000 7.577733040E+000
 3.450000048E+000 7.560869217E+000
 3.460000038E+000 7.533991814E+000
 3.470000029E+000 7.497629166E+000
 3.480000019E+000 7.462319851E+000
 3.490000010E+000 7.443874836E+000
 3.500000000E+000 7.418579102E+000
 3.509999990E+000 7.504480362E+000
 3.519999981E+000 7.470751762E+000
 3.529999971E+000 7.431226730E+000
 3.539999962E+000 7.384323597E+000
 3.549999952E+000 7.331624031E+000
 3.559999943E+000 7.272599697E+000
 3.569999933E+000 7.207778931E+000
 3.579999924E+000 7.137161255E+000
 3.589999914E+000 7.061273098E+000
 3.599999905E+000 6.855216026E+000
 3.609999895E+000 6.767207146E+000
 3.619999886E+000 6.674454689E+000
 3.630000114E+000 6.578540802E+000
 3.640000105E+000 6.478410721E+000
 3.650000095E+000 6.374591827E+000
 3.660000086E+000 6.267611027E+000
 3.670000076E+000 6.157994747E+000
 3.680000067E+000 6.171170235E+000
 3.690000057E+000 6.058392048E+000
 3.700000048E+000 5.942979336E+000
 3.710000038E+000 5.838106155E+000
 3.720000029E+000 5.767488003E+000
 3.730000019E+000 5.695289135E+000
 3.740000010E+000 5.622035980E+000
 3.750000000E+000 5.547729015E+000
 3.759999990E+000 5.472895145E+000
 3.769999981E+000 5.319010735E+000
 3.779999971E+000 5.225574017E+000
 3.789999962E+000 5.082071781E+000
 3.799999952E+000 4.937410355E+000
 3.809999943E+000 4.791905880E+000
 3.819999933E+000 4.660524368E+000
 3.829999924E+000 4.576046467E+000
 3.839999914E+000 4.491357803E+000
 3.849999905E+000 4.406352520E+000
 3.859999895E+000 4.399026871E+000
 3.869999886E+000 4.313969135E+000
 3.880000114E+000 4.228806496E+000
 3.890000105E+000 4.143485069E+000
 3.900000095E+000 4.058163643E+000
 3.910000086E+000 3.972736835E+000
 3.920000076E+000 3.887362719E+000
 3.930000067E+000 3.723992586E+000
 3.940000057E+000 3.637406826E+000
 3.950000048E+000 3.628289461E+000
 3.960000038E+000 3.464972258E+000
 3.970000029E+000 3.455749750E+000
 3.980000019E+000 3.293275595E+000
 3.990000010E+000 3.284053087E+000
 4.000000000E+000 3.124899149E+000
 4.010000229E+000 3.115782261E+000
 4.019999981E+000 2.978604078E+000
 4.030000210E+000 2.969592333E+000
 4.039999962E+000 2.833362818E+000
 4.050000191E+000 2.824561834E+000
 4.059999943E+000 2.689333677E+000
 4.070000172E+000 2.680796385E+000
 4.079999924E+000 2.547728777E+000
 4.090000153E+000 2.539402246E+000
 4.099999905E+000 2.417770386E+000
 4.110000134E+000 2.353265762E+000
 4.119999886E+000 2.345360756E+000
 4.130000114E+000 2.225310087E+000
 4.139999866E+000 2.217773914E+000
 4.150000095E+000 2.098830223E+000
 4.159999847E+000 2.091610432E+000
 4.170000076E+000 1.980255127E+000
 4.179999828E+000 1.973351479E+000
 4.190000057E+000 1.867635369E+000
 4.199999809E+000 1.861100554E+000
 4.210000038E+000 1.756438375E+000
 4.219999790E+000 1.750272393E+000
 4.230000019E+000 1.646611452E+000
 4.239999771E+000 1.640814543E+000
 4.250000000E+000 1.527878404E+000
 4.260000229E+000 1.522450328E+000
 4.269999981E+000 1.403190255E+000
 4.280000210E+000 1.341478467E+000
 4.289999962E+000 1.336682796E+000
 4.300000191E+000 1.222271085E+000
 4.309999943E+000 1.217896938E+000
 4.320000172E+000 1.143695354E+000
 4.329999924E+000 1.139584780E+000
 4.340000153E+000 1.066173673E+000
 4.349999905E+000 1.062379360E+000
 4.360000134E+000 9.897059798E-001
 4.369999886E+000 9.861751199E-001
 4.380000114E+000 9.142396450E-001
 4.389999866E+000 9.110249281E-001
 4.400000095E+000 8.398272395E-001
 4.409999847E+000 8.368759751E-001
 4.420000076E+000 7.684714198E-001
 4.429999828E+000 7.657837272E-001
 4.440000057E+000 7.295787930E-001
 4.449999809E+000 7.103433013E-001
 4.460000038E+000 7.078663707E-001
 4.469999790E+000 6.722412109E-001
 4.480000019E+000 6.699224114E-001
 4.489999771E+000 6.346660852E-001
 4.500000000E+000 6.324527264E-001
 4.510000229E+000 5.975652933E-001
 4.519999981E+000 5.954573154E-001
 4.530000210E+000 5.609387755E-001
 4.539999962E+000 5.589889288E-001
 4.550000191E+000 5.371710658E-001
 4.559999943E+000 5.353266001E-001
 4.570000172E+000 5.238854289E-001
 4.579999924E+000 5.220673084E-001
 4.590000153E+000 5.107262731E-001
 4.599999905E+000 5.089554787E-001
 4.610000134E+000 4.977251291E-001
 4.619999886E+000 4.914064109E-001
 4.630000114E+000 4.897042215E-001
 4.639999866E+000 4.817675948E-001
 4.650000095E+000 4.800969958E-001
 4.659999847E+000 4.722341597E-001
 4.670000076E+000 4.706004858E-001
 4.679999828E+000 4.628114104E-001
 4.690000057E+000 4.612092972E-001
 4.699999809E+000 4.534993172E-001
 4.710000038E+000 4.519288540E-001
 4.719999790E+000 4.442926347E-001
 4.730000019E+000 4.427590370E-001
 4.739999771E+000 4.353863299E-001
 4.750000000E+000 4.338843524E-001
 4.760000229E+000 4.335840046E-001
 4.769999981E+000 4.320820272E-001
 4.780000210E+000 4.317816198E-001
 4.789999962E+000 4.308804870E-001
 4.800000191E+000 4.293890595E-001
 4.809999943E+000 4.290833771E-001
 4.820000172E+000 4.275972545E-001
 4.829999924E+000 4.272863269E-001
 4.840000153E+000 4.258107543E-001
 4.849999905E+000 4.254945517E-001
 4.860000134E+000 4.240241945E-001
 4.869999886E+000 4.237079918E-001
 4.880000114E+000 4.222376645E-001
 4.889999866E+000 4.219214618E-001
 4.900000095E+000 4.204616845E-001
 4.909999847E+000 4.201402068E-001
 4.920000076E+000 4.186857045E-001
 4.929999828E+000 4.183642268E-001
 4.940000057E+000 4.169097245E-001
 4.949999809E+000 4.165882468E-001
 4.960000038E+000 4.157028794E-001
 4.969999790E+000 4.142588973E-001
 4.980000019E+000 4.139321446E-001
 4.989999771E+000 4.124934375E-001
 5.000000000E+000 4.121667147E-001
 5.010000229E+000 4.107332528E-001
 5.019999981E+000 4.104012549E-001
 5.030000210E+000 4.089783430E-001
 5.039999962E+000 4.086463451E-001
 5.050000191E+000 4.072234631E-001
 5.059999943E+000 4.079190791E-001
 5.070000172E+000 4.065014422E-001
 5.079999924E+000 4.071865380E-001
 5.090000153E+000 4.057689309E-001
 5.099999905E+000 4.064434767E-001
 5.110000134E+000 4.050311148E-001
 5.119999886E+000 4.056898654E-001
 5.130000114E+000 4.053104520E-001
 5.139999866E+000 4.038980901E-001
 5.150000095E+000 4.045410156E-001
 5.159999847E+000 4.031286538E-001
 5.170000076E+000 4.037610590E-001
 5.179999828E+000 4.023539722E-001
 5.190000057E+000 4.029705524E-001
 5.199999809E+000 4.015687406E-001
 5.210000038E+000 4.021747708E-001
 5.219999790E+000 4.007729590E-001
 5.230000019E+000 4.013631940E-001
 5.239999771E+000 3.999666572E-001
 5.250000000E+000 4.005463719E-001
 5.260000229E+000 3.991498053E-001
 5.269999981E+000 3.997242451E-001
 5.280000210E+000 3.983276784E-001
 5.289999962E+000 3.988862932E-001
 5.300000191E+000 3.974950016E-001
 5.309999943E+000 3.970786929E-001
 5.320000172E+000 3.976214826E-001
 5.329999924E+000 3.962302208E-001
 5.340000153E+000 3.967624903E-001
 5.349999905E+000 3.953764737E-001
 5.360000134E+000 3.958981931E-001
 5.369999886E+000 3.945174813E-001
 5.380000114E+000 3.950286508E-001
 5.389999866E+000 3.936479092E-001
 5.400000095E+000 3.941485584E-001
 5.409999847E+000 3.927731216E-001
 5.420000076E+000 3.932632208E-001
 5.429999828E+000 3.918877244E-001
 5.440000057E+000 3.923673034E-001
 5.449999809E+000 3.909971118E-001
 5.460000038E+000 3.914661407E-001
 5.469999790E+000 3.900959492E-001
 5.480000019E+000 3.896427155E-001
 5.489999771E+000 3.900959492E-001
 5.500000000E+000 3.887310028E-001
 5.510000229E+000 3.892580271E-001
 5.519999981E+000 3.878930807E-001
 5.530000210E+000 3.884991407E-001
 5.539999962E+000 3.871394694E-001
 5.550000191E+000 3.877349794E-001
 5.559999943E+000 3.863753378E-001
 5.570000172E+000 3.869602978E-001
 5.579999924E+000 3.856059015E-001
 5.590000153E+000 3.861750662E-001
 5.599999905E+000 3.848259449E-001
 5.610000134E+000 3.853845596E-001
 5.619999886E+000 3.840354383E-001
 5.630000114E+000 3.845835030E-001
 5.639999866E+000 3.832396865E-001
 5.650000095E+000 3.828391433E-001
 5.659999847E+000 3.833714426E-001
 5.670000076E+000 3.820275664E-001
 5.679999828E+000 3.825545609E-001
 5.690000057E+000 3.812107146E-001
 5.699999809E+000 3.817271590E-001
 5.710000038E+000 3.803886175E-001
 5.719999790E+000 3.808892369E-001
 5.730000019E+000 3.795559406E-001
 5.739999771E+000 3.800460696E-001
 5.750000000E+000 3.787127435E-001
 5.760000229E+000 3.791975677E-001
 5.769999981E+000 3.778695464E-001
 5.780000210E+000 3.783438504E-001
 5.789999962E+000 3.770157993E-001
 5.800000191E+000 3.774795830E-001
 5.809999943E+000 3.761567771E-001
 5.820000172E+000 3.757246435E-001
 5.829999924E+000 3.761726022E-001
 5.840000153E+000 3.748498261E-001
 5.849999905E+000 3.752925098E-001
 5.860000134E+000 3.739750087E-001
 5.869999886E+000 3.744071424E-001
 5.880000114E+000 3.730896413E-001
 5.889999866E+000 3.735112548E-001
 5.900000095E+000 3.722042739E-001
 5.909999847E+000 3.726153672E-001
 5.920000076E+000 3.713083863E-001
 5.929999828E+000 3.713874221E-001
 5.940000057E+000 3.700857460E-001
 5.949999809E+000 3.697010577E-001
 5.960000038E+000 3.684045970E-001
 5.969999790E+000 3.680146337E-001
 5.980000019E+000 3.667235076E-001
 5.989999771E+000 3.658855855E-001
 6.000000000E+000 3.655008376E-001
 6.010000229E+000 3.642202318E-001
 6.019999981E+000 3.638302684E-001
 6.030000210E+000 3.625549376E-001
 6.039999962E+000 3.621649444E-001
 6.050000191E+000 3.608948588E-001
 6.059999943E+000 3.605048954E-001
 6.070000172E+000 3.592400849E-001
 6.079999924E+000 3.588500917E-001
 6.090000153E+000 3.575958312E-001
 6.099999905E+000 3.572058678E-001
 6.110000134E+000 3.559516072E-001
 6.119999886E+000 3.555616438E-001
 6.130000114E+000 3.543126583E-001
 6.139999866E+000 3.539279103E-001
 6.150000095E+000 3.526841998E-001
 6.159999847E+000 3.518726230E-001
 6.170000076E+000 3.514826596E-001
 6.179999828E+000 3.502494693E-001
 6.190000057E+000 3.498595059E-001
 6.199999809E+000 3.486315906E-001
 6.210000038E+000 3.482416272E-001
 6.219999790E+000 3.470189571E-001
 6.230000019E+000 3.466289639E-001
 6.239999771E+000 3.454116285E-001
 6.250000000E+000 3.450216353E-001
 6.260000229E+000 3.438148201E-001
 6.269999981E+000 3.434248269E-001
 6.280000210E+000 3.422180116E-001
 6.289999962E+000 3.418280184E-001
 6.300000191E+000 3.406317234E-001
 6.309999943E+000 3.402417302E-001
 6.320000172E+000 3.390507400E-001
 6.329999924E+000 3.382602334E-001
 6.340000153E+000 3.378702402E-001
 6.349999905E+000 3.366844952E-001
 6.360000134E+000 3.362945020E-001
 6.369999886E+000 3.351140320E-001
 6.380000114E+000 3.347240388E-001
 6.389999866E+000 3.335541189E-001
 6.400000095E+000 3.331641257E-001
 6.409999847E+000 3.319941759E-001
 6.420000076E+000 3.316042125E-001
 6.429999828E+000 3.304448128E-001
 6.440000057E+000 3.300548196E-001
 6.449999809E+000 3.289006948E-001
 6.460000038E+000 3.284632862E-001
 6.469999790E+000 3.273144364E-001
 6.480000019E+000 3.268717527E-001
 6.489999771E+000 3.257229030E-001
 6.500000000E+000 3.249323964E-001
 6.510000229E+000 3.244897127E-001
 6.519999981E+000 3.233566582E-001
 6.530000210E+000 3.229139745E-001
 6.539999962E+000 3.217861950E-001
 6.550000191E+000 3.213435113E-001
 6.559999943E+000 3.202210069E-001
 6.570000172E+000 3.197783232E-001
 6.579999924E+000 3.186610639E-001
 6.590000153E+000 3.182236850E-001
 6.599999905E+000 3.171064556E-001
 6.610000134E+000 3.166690469E-001
 6.619999886E+000 3.155623376E-001
 6.630000114E+000 3.151249290E-001
 6.639999866E+000 3.140234947E-001
 6.650000095E+000 3.135860562E-001
 6.659999847E+000 3.124899268E-001
 6.670000076E+000 3.117257655E-001
 6.679999828E+000 3.112936318E-001
 6.690000057E+000 3.102027476E-001
 6.699999809E+000 3.097705841E-001
 6.710000038E+000 3.086902499E-001
 6.719999790E+000 3.082581162E-001
 6.730000019E+000 3.071777523E-001
 6.739999771E+000 3.067456186E-001
 6.750000000E+000 3.056758344E-001
 6.760000229E+000 3.052436709E-001
 6.769999981E+000 3.041791320E-001
 6.780000210E+000 3.037469983E-001
 6.789999962E+000 3.026877344E-001
 6.800000191E+000 3.022608459E-001
 6.809999943E+000 3.012015522E-001
 6.820000172E+000 3.007747233E-001
 6.829999924E+000 2.997259796E-001
 6.840000153E+000 2.989881933E-001
 6.849999905E+000 2.985613048E-001
 6.860000134E+000 2.975231111E-001
 6.869999886E+000 2.970962524E-001
 6.880000114E+000 2.960580587E-001
 6.889999866E+000 2.956364453E-001
 6.900000095E+000 2.946035266E-001
 6.909999847E+000 2.941819429E-001
 6.920000076E+000 2.931542993E-001
 6.929999828E+000 2.927326858E-001
 6.940000057E+000 2.917103171E-001
 6.949999809E+000 2.912887037E-001
 6.960000038E+000 2.902768850E-001
 6.969999790E+000 2.898552716E-001
 6.980000019E+000 2.888434529E-001
 6.989999771E+000 2.884270847E-001
 7.000000000E+000 2.874205410E-001
 7.010000229E+000 2.867143452E-001
 7.019999981E+000 2.859818339E-001
 7.030000210E+000 2.849857807E-001
 7.039999962E+000 2.841794789E-001
 7.050000191E+000 2.831887305E-001
 7.059999943E+000 2.823929489E-001
 7.070000172E+000 2.814074755E-001
 7.079999924E+000 2.806116939E-001
 7.090000153E+000 2.796367407E-001
 7.099999905E+000 2.788462341E-001
 7.110000134E+000 2.778765559E-001
 7.119999886E+000 2.770913243E-001
 7.130000114E+000 2.761269212E-001
 7.139999866E+000 2.753522396E-001
 7.150000095E+000 2.743930817E-001
 7.159999847E+000 2.736184001E-001
 7.170000076E+000 2.726645470E-001
 7.179999828E+000 2.718054950E-001
 7.190000057E+000 2.710413933E-001
 7.199999809E+000 2.700980604E-001
 7.210000038E+000 2.693391740E-001
 7.219999790E+000 2.684010863E-001
 7.230000019E+000 2.676474750E-001
 7.239999771E+000 2.667146921E-001
 7.250000000E+000 2.659611106E-001
 7.260000229E+000 2.650388479E-001
 7.269999981E+000 2.642904818E-001
 7.280000210E+000 2.633734941E-001
 7.289999962E+000 2.626357377E-001
 7.300000191E+000 2.617187500E-001
 7.309999943E+000 2.609862089E-001
 7.320000172E+000 2.600797713E-001
 7.329999924E+000 2.593472302E-001
 7.340000153E+000 2.584460676E-001
 7.349999905E+000 2.576344907E-001
 7.360000134E+000 2.569072247E-001
 7.369999886E+000 2.560166121E-001
 7.380000114E+000 2.552946210E-001
 7.389999866E+000 2.544092536E-001
 7.400000095E+000 2.536978126E-001
 7.409999847E+000 2.528177202E-001
 7.420000076E+000 2.521062791E-001
 7.429999828E+000 2.512314320E-001
 7.440000057E+000 2.505252659E-001
 7.449999809E+000 2.496557087E-001
 7.460000038E+000 2.489547879E-001
 7.469999790E+000 2.480905205E-001
 7.480000019E+000 2.473948896E-001
 7.489999771E+000 2.465358675E-001
 7.500000000E+000 2.458454967E-001
 7.510000229E+000 2.449917644E-001
 7.519999981E+000 2.442276180E-001
 7.530000210E+000 2.435372323E-001
 7.539999962E+000 2.426940501E-001
 7.550000191E+000 2.420142144E-001
 7.559999943E+000 2.411762923E-001
 7.570000172E+000 2.405017167E-001
 7.579999924E+000 2.396690696E-001
 7.590000153E+000 2.389944941E-001
 7.599999905E+000 2.381671220E-001
 7.610000134E+000 2.374978215E-001
 7.619999886E+000 2.366809696E-001
 7.630000114E+000 2.360169590E-001
 7.639999866E+000 2.352000922E-001
 7.650000095E+000 2.345413566E-001
 7.659999847E+000 2.337297797E-001
 7.670000076E+000 2.330762893E-001
 7.679999828E+000 2.322699726E-001
 7.690000057E+000 2.316164970E-001
 7.699999809E+000 2.308945060E-001
 7.710000038E+000 2.300934643E-001
 7.719999790E+000 2.294505239E-001
 7.730000019E+000 2.286600322E-001
 7.739999771E+000 2.280170918E-001
 7.750000000E+000 2.272318602E-001
 7.760000229E+000 2.265941948E-001
 7.769999981E+000 2.258142233E-001
 7.780000210E+000 2.251818329E-001
 7.789999962E+000 2.244071364E-001
 7.800000191E+000 2.237747312E-001
 7.809999943E+000 2.230053246E-001
 7.820000172E+000 2.223781943E-001
 7.829999924E+000 2.216140330E-001
 7.840000153E+000 2.209236771E-001
 7.849999905E+000 2.203018069E-001
 7.860000134E+000 2.196167111E-001
 7.869999886E+000 2.188999951E-001
 7.880000114E+000 2.181463838E-001
 7.889999866E+000 2.173980325E-001
 7.900000095E+000 2.166496962E-001
 7.909999847E+000 2.159013599E-001
 7.920000076E+000 2.151582837E-001
 7.929999828E+000 2.144204974E-001
 7.940000057E+000 2.136826813E-001
 7.949999809E+000 2.129501551E-001
 7.960000038E+000 2.122176290E-001
 7.969999790E+000 2.114903778E-001
 7.980000019E+000 2.107631117E-001
 7.989999771E+000 2.100358605E-001
 8.000000000E+000 2.093138546E-001
 8.010000229E+000 2.085971385E-001
 8.020000458E+000 2.078804076E-001
 8.029999733E+000 2.071689665E-001
 8.039999962E+000 2.064575255E-001
 8.050000191E+000 2.057460696E-001
 8.060000420E+000 2.050398886E-001
 8.069999695E+000 2.043389827E-001
 8.079999924E+000 2.036380768E-001
 8.090000153E+000 2.029371560E-001
 8.100000381E+000 2.022415102E-001
 8.109999657E+000 2.015511543E-001
 8.119999886E+000 2.008607835E-001
 8.130000114E+000 2.001703978E-001
 8.140000343E+000 1.994853169E-001
 8.149999619E+000 1.988002062E-001
 8.159999847E+000 1.981203854E-001
 8.170000076E+000 1.974405497E-001
 8.180000305E+000 1.967660040E-001
 8.189999580E+000 1.960914284E-001
 8.199999809E+000 1.954221427E-001
 8.210000038E+000 1.947528422E-001
 8.220000267E+000 1.940835565E-001
 8.229999542E+000 1.934195310E-001
 8.239999771E+000 1.927607954E-001
 8.250000000E+000 1.920967698E-001
 8.260000229E+000 1.914432943E-001
 8.270000458E+000 1.907898039E-001
 8.279999733E+000 1.901363283E-001
 8.289999962E+000 1.894881278E-001
 8.300000191E+000 1.888399124E-001
 8.310000420E+000 1.881917119E-001
 8.319999695E+000 1.875487715E-001
 8.329999924E+000 1.869110763E-001
 8.340000153E+000 1.862734109E-001
 8.350000381E+000 1.856357455E-001
 8.359999657E+000 1.850033402E-001
 8.369999886E+000 1.843709499E-001
 8.380000114E+000 1.837385595E-001
 8.390000343E+000 1.831114292E-001
 8.399999619E+000 1.824895591E-001
 8.409999847E+000 1.818677038E-001
 8.420000076E+000 1.812458336E-001
 8.430000305E+000 1.806292385E-001
 8.439999580E+000 1.800126582E-001
 8.449999809E+000 1.794013381E-001
 8.460000038E+000 1.787900180E-001
 8.470000267E+000 1.781787127E-001
 8.479999542E+000 1.775726527E-001
 8.489999771E+000 1.769665927E-001
 8.500000000E+000 1.763658226E-001
 8.510000229E+000 1.757650375E-001
 8.520000458E+000 1.751642674E-001
 8.529999733E+000 1.745687425E-001
 8.539999962E+000 1.739732474E-001