TITLE     = "| | |"
VARIABLES = "V1"
"V2"
ZONE T="ZONE 001"
 I=999, J=1, K=1,F=POINT
DT=(SINGLE SINGLE )
 9.999999776E-003 -7.300530797E-006
 1.999999955E-002 -7.820680366E-006
 2.999999933E-002 -8.327127034E-006
 3.999999911E-002 -8.788251762E-006
 5.000000075E-002 -9.208271877E-006
 5.999999866E-002 -9.591926755E-006
 7.000000030E-002 -9.940800737E-006
 7.999999821E-002 -1.025963593E-005
 9.000000358E-002 -1.054948552E-005
 1.000000015E-001 -1.081456685E-005
 1.099999994E-001 -1.105540559E-005
 1.199999973E-001 -1.127569158E-005
 1.299999952E-001 -1.147595140E-005
 1.400000006E-001 -1.165882077E-005
 1.500000060E-001 -1.182535289E-005
 1.599999964E-001 -1.197712936E-005
 1.700000018E-001 -1.211520248E-005
 1.800000072E-001 -1.224168227E-005
 1.899999976E-001 -1.235656964E-005
 2.000000030E-001 -1.246144257E-005
 2.099999934E-001 -1.255682946E-005
 2.199999988E-001 -1.264431103E-005
 2.300000042E-001 -1.272388818E-005
 2.399999946E-001 -1.279608750E-005
 2.500000000E-001 -1.286196220E-005
 2.599999905E-001 -1.292203979E-005
 2.700000107E-001 -1.297684867E-005
 2.800000012E-001 -1.302691271E-005
 2.899999917E-001 -1.307276216E-005
 3.000000119E-001 -1.311439519E-005
 3.100000024E-001 -1.315181180E-005
 3.199999928E-001 -1.318659451E-005
 3.300000131E-001 -1.321821401E-005
 3.400000036E-001 -1.324667210E-005
 3.499999940E-001 -1.327302289E-005
 3.600000143E-001 -1.329673705E-005
 3.700000048E-001 -1.331834392E-005
 3.799999952E-001 -1.333837008E-005
 3.899999857E-001 -1.335628804E-005
 4.000000060E-001 -1.337262529E-005
 4.099999964E-001 -1.338790844E-005
 4.199999869E-001 -1.340160998E-005
 4.300000072E-001 -1.341373081E-005
 4.399999976E-001 -1.342532505E-005
 4.499999881E-001 -1.343586518E-005
 4.600000083E-001 -1.344535121E-005
 4.699999988E-001 -1.345378223E-005
 4.799999893E-001 -1.346168847E-005
 4.900000095E-001 -1.346853878E-005
 5.000000000E-001 -1.347539001E-005
 5.099999905E-001 -1.348118712E-005
 5.199999809E-001 -1.348645674E-005
 5.299999714E-001 -1.349172726E-005
 5.400000215E-001 -1.349594277E-005
 5.500000119E-001 -1.350015918E-005
 5.600000024E-001 -1.350384809E-005
 5.699999928E-001 -1.350753701E-005
 5.799999833E-001 -1.351017181E-005
 5.899999738E-001 -1.351333412E-005
 6.000000238E-001 -1.351596893E-005
 6.100000143E-001 -1.351807714E-005
 6.200000048E-001 -1.352018535E-005
 6.299999952E-001 -1.352229356E-005
 6.399999857E-001 -1.352387426E-005
 6.499999762E-001 -1.352545587E-005
 6.600000262E-001 -1.352703566E-005
 6.700000167E-001 -1.352861636E-005
 6.800000072E-001 -1.352967047E-005
 6.899999976E-001 -1.353072457E-005
 6.999999881E-001 -1.353177868E-005
 7.099999785E-001 -1.353283278E-005
 7.200000286E-001 -1.353388689E-005
 7.300000191E-001 -1.353441439E-005
 7.400000095E-001 -1.353494099E-005
 7.500000000E-001 -1.353599509E-005
 7.599999905E-001 -1.353652260E-005
 7.699999809E-001 -1.353704829E-005
 7.799999714E-001 -1.353757580E-005
 7.900000215E-001 -1.353810239E-005
 8.000000119E-001 -1.353810239E-005
 8.100000024E-001 -1.353862990E-005
 8.199999928E-001 -1.353915650E-005
 8.299999833E-001 -1.353915650E-005
 8.399999738E-001 -1.353968401E-005
 8.500000238E-001 -1.353968401E-005
 8.600000143E-001 -1.354021060E-005
 8.700000048E-001 -1.354021060E-005
 8.799999952E-001 -1.354073811E-005
 8.899999857E-001 -1.354073811E-005
 8.999999762E-001 -1.354073811E-005
 9.100000262E-001 -1.354073811E-005
 9.200000167E-001 -1.354126471E-005
 9.300000072E-001 -1.354126471E-005
 9.399999976E-001 -1.354126471E-005
 9.499999881E-001 -1.354126471E-005
 9.599999785E-001 -1.354179221E-005
 9.700000286E-001 -1.354179221E-005
 9.800000191E-001 -1.354179221E-005
 9.900000095E-001 -1.354179221E-005
 1.000000000E+000 -1.354179221E-005
 1.009999990E+000 -1.354179221E-005
 1.019999981E+000 -1.354179221E-005
 1.029999971E+000 -1.382795290E-005
 1.039999962E+000 -1.521238210E-005
 1.049999952E+000 -1.737676939E-005
 1.059999943E+000 -2.022678746E-005
 1.070000052E+000 -2.382039929E-005
 1.080000043E+000 -2.713101458E-005
 1.090000033E+000 -3.133331120E-005
 1.100000024E+000 -3.665864642E-005
 1.110000014E+000 -4.334574987E-005
 1.120000005E+000 -5.436531865E-005
 1.129999995E+000 -6.786706217E-005
 1.139999986E+000 -8.311316924E-005
 1.149999976E+000 -1.000140546E-004
 1.159999967E+000 -1.188332317E-004
 1.169999957E+000 -1.361768082E-004
 1.179999948E+000 -1.557759388E-004
 1.190000057E+000 -1.780838356E-004
 1.200000048E+000 -2.034905192E-004
 1.210000038E+000 -2.386888373E-004
 1.220000029E+000 -2.785089600E-004
 1.230000019E+000 -3.234199248E-004
 1.240000010E+000 -3.714454069E-004
 1.250000000E+000 -4.158293304E-004
 1.259999990E+000 -4.627903108E-004
 1.269999981E+000 -5.129027995E-004
 1.279999971E+000 -5.664722994E-004
 1.289999962E+000 -6.325053982E-004
 1.299999952E+000 -7.032288122E-004
 1.309999943E+000 -7.787478971E-004
 1.320000052E+000 -8.596424013E-004
 1.330000043E+000 -9.464920149E-004
 1.340000033E+000 -1.027070335E-003
 1.350000024E+000 -1.114183455E-003
 1.360000014E+000 -1.208938076E-003
 1.370000005E+000 -1.312124543E-003
 1.379999995E+000 -1.439816668E-003
 1.389999986E+000 -1.574992202E-003
 1.399999976E+000 -1.717440318E-003
 1.409999967E+000 -1.867898740E-003
 1.419999957E+000 -2.007922623E-003
 1.429999948E+000 -2.156589413E-003
 1.440000057E+000 -2.315690741E-003
 1.450000048E+000 -2.486017067E-003
 1.460000038E+000 -2.668306464E-003
 1.470000029E+000 -2.890542382E-003
 1.480000019E+000 -3.128008684E-003
 1.490000010E+000 -3.380388953E-003
 1.500000000E+000 -3.642360447E-003
 1.509999990E+000 -3.886677558E-003
 1.519999981E+000 -4.138056654E-003
 1.529999971E+000 -4.398711026E-003
 1.539999962E+000 -4.669378046E-003
 1.549999952E+000 -4.981046077E-003
 1.559999943E+000 -5.305309314E-003
 1.570000052E+000 -5.641534925E-003
 1.580000043E+000 -5.990935955E-003
 1.590000033E+000 -6.317675579E-003
 1.600000024E+000 -6.657590624E-003
 1.610000014E+000 -7.014370058E-003
 1.620000005E+000 -7.388540078E-003
 1.629999995E+000 -7.781682070E-003
 1.639999986E+000 -8.241225965E-003
 1.649999976E+000 -8.722904138E-003
 1.659999967E+000 -9.226188995E-003
 1.669999957E+000 -9.751608595E-003
 1.679999948E+000 -1.024435274E-002
 1.690000057E+000 -1.075975876E-002
 1.700000048E+000 -1.130256895E-002
 1.710000038E+000 -1.186804008E-002
 1.720000029E+000 -1.250887197E-002
 1.730000019E+000 -1.317183860E-002
 1.740000010E+000 -1.385482959E-002
 1.750000000E+000 -1.455995627E-002
 1.759999990E+000 -1.522134058E-002
 1.769999981E+000 -1.590433344E-002
 1.779999971E+000 -1.661525667E-002
 1.789999962E+000 -1.735516265E-002
 1.799999952E+000 -1.812511124E-002
 1.809999943E+000 -1.900783554E-002
 1.820000052E+000 -1.992744952E-002
 1.830000043E+000 -2.088026702E-002
 1.840000033E+000 -2.186786570E-002
 1.850000024E+000 -2.279696427E-002
 1.860000014E+000 -2.376032062E-002
 1.870000005E+000 -2.477901243E-002
 1.879999995E+000 -2.586410567E-002
 1.889999986E+000 -2.715683542E-002
 1.899999976E+000 -2.852967195E-002
 1.909999967E+000 -2.997628599E-002
 1.919999957E+000 -3.149931505E-002
 1.929999948E+000 -3.310403228E-002
 1.940000057E+000 -3.461810201E-002
 1.950000048E+000 -3.621069714E-002
 1.960000038E+000 -3.789920360E-002
 1.970000029E+000 -3.989021108E-002
 1.980000019E+000 -4.178477824E-002
 1.990000010E+000 -4.377261922E-002
 2.000000000E+000 -4.587535188E-002
 2.009999990E+000 -4.809770733E-002
 2.019999981E+000 -5.044496804E-002
 2.029999971E+000 -5.292133987E-002
 2.039999962E+000 -5.553526059E-002
 2.049999952E+000 -5.829674006E-002
 2.059999943E+000 -6.156414002E-002
 2.069999933E+000 -6.510557979E-002
 2.079999924E+000 -6.889997423E-002
 2.089999914E+000 -7.296315581E-002
 2.099999905E+000 -7.732143998E-002
 2.109999895E+000 -8.198539168E-002
 2.119999886E+000 -8.697080612E-002
 2.130000114E+000 -9.230405092E-002
 2.140000105E+000 -9.800092131E-002
 2.150000095E+000 -1.034026742E-001
 2.160000086E+000 -1.091680527E-001
 2.170000076E+000 -1.153655723E-001
 2.180000067E+000 -1.220163032E-001
 2.190000057E+000 -1.291466057E-001
 2.200000048E+000 -1.367828548E-001
 2.210000038E+000 -1.449618936E-001
 2.220000029E+000 -1.537100971E-001
 2.230000019E+000 -1.644556224E-001
 2.240000010E+000 -1.761550158E-001
 2.250000000E+000 -1.887872070E-001
 2.259999990E+000 -2.024101615E-001
 2.269999981E+000 -2.170976400E-001
 2.279999971E+000 -2.329339981E-001
 2.289999962E+000 -2.499982715E-001
 2.299999952E+000 -2.683800161E-001
 2.309999943E+000 -2.881741524E-001
 2.319999933E+000 -3.070565462E-001
 2.329999924E+000 -3.273460567E-001
 2.339999914E+000 -3.493219316E-001
 2.349999905E+000 -3.731001914E-001
 2.359999895E+000 -3.988072574E-001
 2.369999886E+000 -4.265696108E-001
 2.380000114E+000 -4.565348327E-001
 2.390000105E+000 -4.909004867E-001
 2.400000095E+000 -5.420722365E-001
 2.410000086E+000 -6.029933691E-001
 2.420000076E+000 -6.742964983E-001
 2.430000067E+000 -7.574043870E-001
 2.440000057E+000 -8.540034890E-001
 2.450000048E+000 -9.658855796E-001
 2.460000038E+000 -1.107385159E+000
 2.470000029E+000 -1.300425172E+000
 2.480000019E+000 -1.559551120E+000
 2.490000010E+000 -1.809770703E+000
 2.500000000E+000 -2.139936209E+000
 2.509999990E+000 -2.682851553E+000
 2.519999981E+000 -3.691898584E+000
 2.529999971E+000 -5.512947083E+000
 2.539999962E+000 -8.220146179E+000
 2.549999952E+000 -1.139795589E+001
 2.559999943E+000 -1.432965660E+001
 2.569999933E+000 -1.651986885E+001
 2.579999924E+000 -1.846291924E+001
 2.589999914E+000 -1.971665192E+001
 2.599999905E+000 -2.055616188E+001
 2.609999895E+000 -2.101517868E+001
 2.619999886E+000 -2.145575142E+001
 2.630000114E+000 -2.200435829E+001
 2.640000105E+000 -2.234585381E+001
 2.650000095E+000 -2.249710274E+001
 2.660000086E+000 -2.349049759E+001
 2.670000076E+000 -2.334662628E+001
 2.680000067E+000 -2.305308914E+001
 2.690000057E+000 -2.269051170E+001
 2.700000048E+000 -2.228577614E+001
 2.710000038E+000 -2.177616692E+001
 2.720000029E+000 -2.117169762E+001
 2.730000019E+000 -2.048185539E+001
 2.740000010E+000 -1.971506882E+001
 2.750000000E+000 -1.853722382E+001
 2.759999990E+000 -1.833274841E+001
 2.769999981E+000 -1.829164314E+001
 2.779999971E+000 -1.821839142E+001
 2.789999962E+000 -1.811615181E+001
 2.799999952E+000 -1.793170166E+001
 2.809999943E+000 -1.765186501E+001
 2.819999933E+000 -1.742841721E+001
 2.829999924E+000 -1.746583366E+001
 2.839999914E+000 -1.730457306E+001
 2.849999905E+000 -1.714172935E+001
 2.859999895E+000 -1.698468208E+001
 2.869999886E+000 -1.686716080E+001
 2.880000114E+000 -1.680866432E+001
 2.890000105E+000 -1.673752022E+001
 2.900000095E+000 -1.665425301E+001
 2.910000086E+000 -1.657572937E+001
 2.920000076E+000 -1.652461243E+001
 2.930000067E+000 -1.644608879E+001
 2.940000057E+000 -1.638021469E+001
 2.950000048E+000 -1.633541870E+001
 2.960000038E+000 -1.628219223E+001
 2.970000029E+000 -1.622053337E+001
 2.980000019E+000 -1.617889977E+001
 2.990000010E+000 -1.616888618E+001
 3.000000000E+000 -1.601763725E+001
 3.009999990E+000 -1.599286938E+001
 3.019999981E+000 -1.596072197E+001
 3.029999971E+000 -1.594069576E+001
 3.039999962E+000 -1.594174957E+001
 3.049999952E+000 -1.593595314E+001
 3.059999943E+000 -1.592225075E+001
 3.069999933E+000 -1.589115715E+001
 3.079999924E+000 -1.583845806E+001
 3.089999914E+000 -1.592014217E+001
 3.099999905E+000 -1.585374165E+001
 3.109999895E+000 -1.578259563E+001
 3.119999886E+000 -1.576942062E+001
 3.130000114E+000 -1.585321426E+001
 3.140000105E+000 -1.592752171E+001
 3.150000095E+000 -1.599234200E+001
 3.160000086E+000 -1.605031204E+001
 3.170000076E+000 -1.581579685E+001
 3.180000067E+000 -1.586375427E+001
 3.190000057E+000 -1.590327930E+001
 3.200000048E+000 -1.593437195E+001
 3.210000038E+000 -1.595808697E+001
 3.220000029E+000 -1.597389698E+001
 3.230000019E+000 -1.598180199E+001
 3.240000010E+000 -1.598285580E+001
 3.250000000E+000 -1.597705841E+001
 3.259999990E+000 -1.621368217E+001
 3.269999981E+000 -1.618996620E+001
 3.279999971E+000 -1.617362976E+001
 3.289999962E+000 -1.617468452E+001
 3.299999952E+000 -1.616835976E+001
 3.309999943E+000 -1.615571213E+001
 3.319999933E+000 -1.613568687E+001
 3.329999924E+000 -1.610986328E+001
 3.339999914E+000 -1.582686424E+001
 3.349999905E+000 -1.577258301E+001
 3.359999895E+000 -1.567245293E+001
 3.369999886E+000 -1.556968784E+001
 3.380000114E+000 -1.546323395E+001
 3.390000105E+000 -1.535361767E+001
 3.400000095E+000 -1.524136734E+001
 3.410000086E+000 -1.512595367E+001
 3.420000076E+000 -1.500843334E+001
 3.430000067E+000 -1.514808750E+001
 3.440000057E+000 -1.509591484E+001
 3.450000048E+000 -1.503847122E+001
 3.460000038E+000 -1.497628689E+001
 3.470000029E+000 -1.490988445E+001
 3.480000019E+000 -1.482292843E+001
 3.490000010E+000 -1.469750309E+001
 3.500000000E+000 -1.456944180E+001
 3.509999990E+000 -1.428749657E+001
 3.519999981E+000 -1.415943623E+001
 3.529999971E+000 -1.402979374E+001
 3.539999962E+000 -1.389857101E+001
 3.549999952E+000 -1.376629448E+001
 3.559999943E+000 -1.363243580E+001
 3.569999933E+000 -1.349805164E+001
 3.579999924E+000 -1.336208534E+001
 3.589999914E+000 -1.322559166E+001
 3.599999905E+000 -1.321557903E+001
 3.609999895E+000 -1.307381630E+001
 3.619999886E+000 -1.293099976E+001
 3.630000114E+000 -1.278818226E+001
 3.640000105E+000 -1.264536572E+001
 3.650000095E+000 -1.250202179E+001
 3.660000086E+000 -1.235867691E+001
 3.670000076E+000 -1.221533298E+001
 3.680000067E+000 -1.196500778E+001
 3.690000057E+000 -1.182429981E+001
 3.700000048E+000 -1.168306255E+001
 3.710000038E+000 -1.153234100E+001
 3.720000029E+000 -1.135421562E+001
 3.730000019E+000 -1.117819691E+001
 3.740000010E+000 -1.100376034E+001
 3.750000000E+000 -1.083195782E+001
 3.759999990E+000 -1.066121006E+001
 3.769999981E+000 -1.054737759E+001
 3.779999971E+000 -1.039085960E+001
 3.789999962E+000 -1.026912212E+001
 3.799999952E+000 -1.014685822E+001
 3.809999943E+000 -1.002512074E+001
 3.819999933E+000 -9.893371582E+000
 3.829999924E+000 -9.732109070E+000
 3.839999914E+000 -9.572427750E+000
 3.849999905E+000 -9.413273811E+000
 3.859999895E+000 -9.210906029E+000
 3.869999886E+000 -9.055968285E+000
 3.880000114E+000 -8.901556969E+000
 3.890000105E+000 -8.747673035E+000
 3.900000095E+000 -8.594842911E+000
 3.910000086E+000 -8.443067551E+000
 3.920000076E+000 -8.292872429E+000
 3.930000067E+000 -8.182202339E+000
 3.940000057E+000 -8.032533646E+000
 3.950000048E+000 -7.847030163E+000
 3.960000038E+000 -7.736360073E+000
 3.970000029E+000 -7.554018021E+000
 3.980000019E+000 -7.439658642E+000
 3.990000010E+000 -7.257843971E+000
 4.000000000E+000 -7.135580063E+000
 4.010000229E+000 -6.950076103E+000
 4.019999981E+000 -6.807259083E+000
 4.030000210E+000 -6.615430832E+000
 4.039999962E+000 -6.458384991E+000
 4.050000191E+000 -6.256016731E+000
 4.059999943E+000 -6.083160877E+000
 4.070000172E+000 -5.869725704E+000
 4.079999924E+000 -5.683167934E+000
 4.090000153E+000 -5.460773945E+000
 4.099999905E+000 -5.262990475E+000
 4.110000134E+000 -5.044391155E+000
 4.119999886E+000 -4.818255901E+000
 4.130000114E+000 -4.615202427E+000
 4.139999866E+000 -4.390384197E+000
 4.150000095E+000 -4.188226700E+000
 4.159999847E+000 -3.968046427E+000
 4.170000076E+000 -3.769420385E+000
 4.179999828E+000 -3.557829618E+000
 4.190000057E+000 -3.366739511E+000
 4.199999809E+000 -3.166584969E+000
 4.210000038E+000 -2.985823870E+000
 4.219999790E+000 -2.798369884E+000
 4.230000019E+000 -2.629150152E+000
 4.239999771E+000 -2.455345631E+000
 4.250000000E+000 -2.299037457E+000
 4.260000229E+000 -2.138460636E+000
 4.269999981E+000 -1.994694948E+000
 4.280000210E+000 -1.850191593E+000
 4.289999962E+000 -1.710167646E+000
 4.300000191E+000 -1.585690260E+000
 4.309999943E+000 -1.460316896E+000
 4.320000172E+000 -1.347855210E+000
 4.329999924E+000 -1.238660812E+000
 4.340000153E+000 -1.141165733E+000
 4.349999905E+000 -1.046832800E+000
 4.360000134E+000 -9.628816843E-001
 4.369999886E+000 -8.818818331E-001
 4.380000114E+000 -8.100516796E-001
 4.389999866E+000 -7.409619689E-001
 4.400000095E+000 -6.798827052E-001
 4.409999847E+000 -6.211749315E-001
 4.420000076E+000 -5.694234967E-001
 4.429999828E+000 -5.198380351E-001
 4.440000057E+000 -4.753856361E-001
 4.449999809E+000 -4.342005551E-001
 4.460000038E+000 -3.961669803E-001
 4.469999790E+000 -3.621122539E-001
 4.480000019E+000 -3.302867115E-001
 4.489999771E+000 -3.018076122E-001
 4.500000000E+000 -2.752046585E-001
 4.510000229E+000 -2.514158785E-001
 4.519999981E+000 -2.291975766E-001
 4.530000210E+000 -2.093402147E-001
 4.539999962E+000 -1.908003390E-001
 4.550000191E+000 -1.741049886E-001
 4.559999943E+000 -1.586638838E-001
 4.570000172E+000 -1.446773112E-001
 4.579999924E+000 -1.318395883E-001
 4.590000153E+000 -1.202139705E-001
 4.599999905E+000 -1.095422134E-001
 4.610000134E+000 -9.987176955E-002
 4.619999886E+000 -9.102870524E-002
 4.630000114E+000 -8.293925971E-002
 4.639999866E+000 -7.559815049E-002
 4.650000095E+000 -6.887890399E-002
 4.659999847E+000 -6.278151274E-002
 4.670000076E+000 -5.720058084E-002
 4.679999828E+000 -5.213611200E-002
 4.690000057E+000 -4.749956354E-002
 4.699999809E+000 -4.329199716E-002
 4.710000038E+000 -3.944068030E-002
 4.719999790E+000 -3.594614565E-002
 4.730000019E+000 -3.274725378E-002
 4.739999771E+000 -2.984453738E-002
 4.750000000E+000 -2.718793042E-002
 4.760000229E+000 -2.476583794E-002
 4.769999981E+000 -2.256139740E-002
 4.780000210E+000 -2.055194601E-002
 4.789999962E+000 -1.872220263E-002
 4.800000191E+000 -1.705582812E-002
 4.809999943E+000 -1.553648710E-002
 4.820000172E+000 -1.415416598E-002
 4.829999924E+000 -1.289358269E-002
 4.840000153E+000 -1.174630225E-002
 4.849999905E+000 -1.070020813E-002
 4.860000134E+000 -9.747918695E-003
 4.869999886E+000 -8.879949339E-003
 4.880000114E+000 -8.089976385E-003
 4.889999866E+000 -7.369568106E-003
 4.900000095E+000 -6.713979878E-003
 4.909999847E+000 -6.115834694E-003
 4.920000076E+000 -5.571970716E-003
 4.929999828E+000 -5.076169502E-003
 4.940000057E+000 -4.624688532E-003
 4.949999809E+000 -4.213049076E-003
 4.960000038E+000 -3.838246455E-003
 4.969999790E+000 -3.496908583E-003
 4.980000019E+000 -3.185715061E-003
 4.989999771E+000 -2.902452601E-003
 5.000000000E+000 -2.644222463E-003
 5.010000229E+000 -2.409127774E-003
 5.019999981E+000 -2.194796922E-003
 5.030000210E+000 -1.999754226E-003
 5.039999962E+000 -1.821891754E-003
 5.050000191E+000 -1.659997390E-003
 5.059999943E+000 -1.512279152E-003
 5.070000172E+000 -1.377946930E-003
 5.079999924E+000 -1.255366718E-003
 5.090000153E+000 -1.143906265E-003
 5.099999905E+000 -1.042195247E-003
 5.110000134E+000 -9.497067076E-004
 5.119999886E+000 -8.652812685E-004
 5.130000114E+000 -7.884973893E-004
 5.139999866E+000 -7.185644936E-004
 5.150000095E+000 -6.547447992E-004
 5.159999847E+000 -5.967220641E-004
 5.170000076E+000 -5.438113003E-004
 5.179999828E+000 -4.956962075E-004
 5.190000057E+000 -4.517707275E-004
 5.199999809E+000 -4.118241486E-004
 5.210000038E+000 -3.753768106E-004
 5.219999790E+000 -3.422338050E-004
 5.230000019E+000 -3.119892790E-004
 5.239999771E+000 -2.844904084E-004
 5.250000000E+000 -2.593999379E-004
 5.260000229E+000 -2.365808323E-004
 5.269999981E+000 -2.157643466E-004
 5.280000210E+000 -1.968345023E-004
 5.289999962E+000 -1.795647113E-004
 5.300000191E+000 -1.638601098E-004
 5.309999943E+000 -1.495467877E-004
 5.320000172E+000 -1.365035423E-004
 5.329999924E+000 -1.246407774E-004
 5.340000153E+000 -1.138214575E-004
 5.349999905E+000 -1.039876443E-004
 5.360000134E+000 -9.501810564E-005
 5.369999886E+000 -8.686013462E-005
 5.380000114E+000 -7.942416414E-005
 5.389999866E+000 -7.266803004E-005
 5.400000095E+000 -6.650740397E-005
 5.409999847E+000 -6.090011811E-005
 5.420000076E+000 -5.579875869E-005
 5.429999828E+000 -5.116379543E-005
 5.440000057E+000 -4.693935989E-005
 5.449999809E+000 -4.310016811E-005
 5.460000038E+000 -3.960562753E-005
 5.469999790E+000 -3.642992669E-005
 5.480000019E+000 -3.354038927E-005
 5.489999771E+000 -3.091487451E-005
 5.500000000E+000 -2.853072510E-005
 5.510000229E+000 -2.636423051E-005
 5.519999981E+000 -2.439746459E-005
 5.530000210E+000 -2.261356894E-005
 5.539999962E+000 -2.099409903E-005
 5.550000191E+000 -1.952745879E-005
 5.559999943E+000 -1.819783574E-005
 5.570000172E+000 -1.699522363E-005
 5.579999924E+000 -1.590538704E-005
 5.590000153E+000 -1.492305910E-005
 5.599999905E+000 -1.403295573E-005
 5.610000134E+000 -1.323349716E-005
 5.619999886E+000 -1.251045342E-005
 5.630000114E+000 -1.186329700E-005
 5.639999866E+000 -1.127832729E-005
 5.650000095E+000 -1.075396267E-005
 5.659999847E+000 -1.028914812E-005
 5.670000076E+000 -9.870710528E-006
 5.679999828E+000 -9.503391084E-006
 5.690000057E+000 -9.172961654E-006
 5.699999809E+000 -8.886273463E-006
 5.710000038E+000 -8.630151569E-006
 5.719999790E+000 -8.410919691E-006
 5.730000019E+000 -8.216456990E-006
 5.739999771E+000 -8.054141290E-006
 5.750000000E+000 -7.911324246E-006
 5.760000229E+000 -7.796965292E-006
 5.769999981E+000 -7.697888577E-006
 5.780000210E+000 -7.623581951E-006
 5.789999962E+000 -7.560869108E-006
 5.800000191E+000 -7.521343832E-006
 5.809999943E+000 -7.489723885E-006
 5.820000172E+000 -7.471805930E-006
 5.829999924E+000 -7.473387086E-006
 5.840000153E+000 -7.480764907E-006
 5.849999905E+000 -7.505533631E-006
 5.860000134E+000 -7.532938071E-006
 5.869999886E+000 -7.577205906E-006
 5.880000114E+000 -7.623054898E-006
 5.889999866E+000 -7.684187040E-006
 5.900000095E+000 -7.745318726E-006
 5.909999847E+000 -7.821733561E-006
 5.920000076E+000 -7.896567695E-006
 5.929999828E+000 -7.981941962E-006
 5.940000057E+000 -8.065734619E-006
 5.949999809E+000 -8.154798707E-006
 5.960000038E+000 -8.241225260E-006
 5.969999790E+000 -8.333451660E-006
 5.980000019E+000 -8.422513929E-006
 5.989999771E+000 -8.513158718E-006
 6.000000000E+000 -8.609598808E-006
 6.010000229E+000 -8.702351806E-006
 6.019999981E+000 -8.801426702E-006
 6.030000210E+000 -8.896287000E-006
 6.039999962E+000 -8.997998520E-006
 6.050000191E+000 -9.094966117E-006
 6.059999943E+000 -9.198257430E-006
 6.070000172E+000 -9.297334145E-006
 6.079999924E+000 -9.402733667E-006
 6.090000153E+000 -9.503917681E-006
 6.099999905E+000 -9.611425412E-006
 6.110000134E+000 -9.714190128E-006
 6.119999886E+000 -9.823279470E-006
 6.130000114E+000 -9.928152394E-006
 6.139999866E+000 -1.003934995E-005
 6.150000095E+000 -1.014580448E-005
 6.159999847E+000 -1.025278470E-005
 6.170000076E+000 -1.036714366E-005
 6.179999828E+000 -1.047623300E-005
 6.190000057E+000 -1.059217266E-005
 6.199999809E+000 -1.070284361E-005
 6.210000038E+000 -1.082036397E-005
 6.219999790E+000 -1.093261562E-005
 6.230000019E+000 -1.105224328E-005
 6.239999771E+000 -1.116607655E-005
 6.250000000E+000 -1.128728582E-005
 6.260000229E+000 -1.140269887E-005
 6.269999981E+000 -1.152601635E-005
 6.280000210E+000 -1.164301102E-005
 6.289999962E+000 -1.176738351E-005
 6.300000191E+000 -1.188648457E-005
 6.309999943E+000 -1.201296527E-005
 6.320000172E+000 -1.213364794E-005
 6.329999924E+000 -1.225433061E-005
 6.340000153E+000 -1.238397272E-005
 6.349999905E+000 -1.250729110E-005
 6.360000134E+000 -1.263798731E-005
 6.369999886E+000 -1.276288640E-005
 6.380000114E+000 -1.289568991E-005
 6.389999866E+000 -1.302216970E-005
 6.400000095E+000 -1.315655572E-005
 6.409999847E+000 -1.328514281E-005
 6.420000076E+000 -1.342110863E-005
 6.429999828E+000 -1.355127824E-005
 6.440000057E+000 -1.368935227E-005
 6.449999809E+000 -1.382057508E-005
 6.460000038E+000 -1.395970230E-005
 6.469999790E+000 -1.409198012E-005
 6.480000019E+000 -1.423163485E-005
 6.489999771E+000 -1.436496586E-005
 6.500000000E+000 -1.449776937E-005
 6.510000229E+000 -1.463953322E-005
 6.519999981E+000 -1.477444494E-005
 6.530000210E+000 -1.491673447E-005
 6.539999962E+000 -1.505270120E-005
 6.550000191E+000 -1.519657235E-005
 6.559999943E+000 -1.533306568E-005
 6.570000172E+000 -1.547799002E-005
 6.579999924E+000 -1.561606405E-005
 6.590000153E+000 -1.576257091E-005
 6.599999905E+000 -1.590169813E-005
 6.610000134E+000 -1.604978388E-005
 6.619999886E+000 -1.619049362E-005
 6.630000114E+000 -1.633963620E-005
 6.639999866E+000 -1.648139732E-005
 6.650000095E+000 -1.663264811E-005
 6.659999847E+000 -1.677599175E-005
 6.670000076E+000 -1.691986290E-005
 6.679999828E+000 -1.707374577E-005
 6.690000057E+000 -1.721972512E-005
 6.699999809E+000 -1.737519051E-005
 6.710000038E+000 -1.752275057E-005
 6.719999790E+000 -1.767979666E-005
 6.730000019E+000 -1.782893742E-005
 6.739999771E+000 -1.798756421E-005
 6.750000000E+000 -1.813828567E-005
 6.760000229E+000 -1.829902249E-005
 6.769999981E+000 -1.845132465E-005
 6.780000210E+000 -1.861364035E-005
 6.789999962E+000 -1.876752503E-005
 6.800000191E+000 -1.893194712E-005
 6.809999943E+000 -1.908741251E-005
 6.820000172E+000 -1.925341894E-005
 6.829999924E+000 -1.941099072E-005
 6.840000153E+000 -1.956856431E-005
 6.849999905E+000 -1.973825783E-005
 6.860000134E+000 -1.989846533E-005
 6.869999886E+000 -2.006974137E-005
 6.880000114E+000 -2.023205707E-005
 6.889999866E+000 -2.040491381E-005
 6.900000095E+000 -2.056881021E-005
 6.909999847E+000 -2.074377335E-005
 6.920000076E+000 -2.090977978E-005
 6.929999828E+000 -2.108685112E-005
 6.940000057E+000 -2.125391075E-005
 6.949999809E+000 -2.143309030E-005
 6.960000038E+000 -2.160278382E-005
 6.969999790E+000 -2.178354407E-005
 6.980000019E+000 -2.195482011E-005
 6.989999771E+000 -2.213821608E-005
 7.000000000E+000 -2.231107283E-005
 7.010000229E+000 -2.248498095E-005
 7.019999981E+000 -2.265889270E-005
 7.030000210E+000 -2.282278911E-005
 7.039999962E+000 -2.298457912E-005
 7.050000191E+000 -2.313635378E-005
 7.059999943E+000 -2.328654955E-005
 7.070000172E+000 -2.342883818E-005
 7.079999924E+000 -2.357007361E-005
 7.090000153E+000 -2.370340735E-005
 7.099999905E+000 -2.383726314E-005
 7.110000134E+000 -2.396374293E-005
 7.119999886E+000 -2.409127774E-005
 7.130000114E+000 -2.421196041E-005
 7.139999866E+000 -2.433422560E-005
 7.150000095E+000 -2.445016617E-005
 7.159999847E+000 -2.456768561E-005
 7.170000076E+000 -2.467993727E-005
 7.179999828E+000 -2.478955139E-005
 7.190000057E+000 -2.490233055E-005
 7.199999809E+000 -2.500931078E-005
 7.210000038E+000 -2.511945604E-005
 7.219999790E+000 -2.522380055E-005
 7.230000019E+000 -2.533131010E-005
 7.239999771E+000 -2.543354640E-005
 7.250000000E+000 -2.553894774E-005
 7.260000229E+000 -2.563960516E-005
 7.269999981E+000 -2.574342216E-005
 7.280000210E+000 -2.584249887E-005
 7.289999962E+000 -2.594473699E-005
 7.300000191E+000 -2.604275869E-005
 7.309999943E+000 -2.614394361E-005
 7.320000172E+000 -2.624038461E-005
 7.329999924E+000 -2.634051270E-005
 7.340000153E+000 -2.643642802E-005
 7.349999905E+000 -2.653128831E-005
 7.360000134E+000 -2.663089072E-005
 7.369999886E+000 -2.672574919E-005
 7.380000114E+000 -2.682430022E-005
 7.389999866E+000 -2.691810550E-005
 7.400000095E+000 -2.701612721E-005
 7.409999847E+000 -2.710993431E-005
 7.420000076E+000 -2.720743032E-005
 7.429999828E+000 -2.730070810E-005
 7.440000057E+000 -2.739767660E-005
 7.449999809E+000 -2.749042869E-005
 7.460000038E+000 -2.758739538E-005
 7.469999790E+000 -2.767961996E-005
 7.480000019E+000 -2.777659029E-005
 7.489999771E+000 -2.786881487E-005
 7.500000000E+000 -2.796472836E-005
 7.510000229E+000 -2.805695294E-005
 7.519999981E+000 -2.814865184E-005
 7.530000210E+000 -2.824456351E-005
 7.539999962E+000 -2.833626240E-005
 7.550000191E+000 -2.843270340E-005
 7.559999943E+000 -2.852440230E-005
 7.570000172E+000 -2.862031579E-005
 7.579999924E+000 -2.871148718E-005
 7.590000153E+000 -2.880740249E-005
 7.599999905E+000 -2.889857205E-005
 7.610000134E+000 -2.899395986E-005
 7.619999886E+000 -2.908512943E-005
 7.630000114E+000 -2.918104292E-005
 7.639999866E+000 -2.927168862E-005
 7.650000095E+000 -2.936760211E-005
 7.659999847E+000 -2.945824599E-005
 7.670000076E+000 -2.955363198E-005
 7.679999828E+000 -2.964480336E-005
 7.690000057E+000 -2.974019117E-005
 7.699999809E+000 -2.983557715E-005
 7.710000038E+000 -2.992622285E-005
 7.719999790E+000 -3.002108315E-005
 7.730000019E+000 -3.011172521E-005
 7.739999771E+000 -3.020658733E-005
 7.750000000E+000 -3.029722939E-005
 7.760000229E+000 -3.039261719E-005
 7.769999981E+000 -3.048273538E-005
 7.780000210E+000 -3.057812137E-005
 7.789999962E+000 -3.066823774E-005
 7.800000191E+000 -3.076362555E-005
 7.809999943E+000 -3.085374192E-005
 7.820000172E+000 -3.094912972E-005
 7.829999924E+000 -3.103977360E-005
 7.840000153E+000 -3.112988998E-005
 7.849999905E+000 -3.122527778E-005
 7.860000134E+000 -3.132066558E-005
 7.869999886E+000 -3.141394336E-005
 7.880000114E+000 -3.150195334E-005
 7.889999866E+000 -3.158521940E-005
 7.900000095E+000 -3.166321403E-005
 7.909999847E+000 -3.173752339E-005
 7.920000076E+000 -3.180761269E-005
 7.929999828E+000 -3.187454422E-005
 7.940000057E+000 -3.193777957E-005
 7.949999809E+000 -3.199838829E-005
 7.960000038E+000 -3.205635585E-005
 7.969999790E+000 -3.211116564E-005
 7.980000019E+000 -3.216438927E-005
 7.989999771E+000 -3.221498264E-005
 8.000000000E+000 -3.226399713E-005
 8.010000229E+000 -3.231089795E-005
 8.020000458E+000 -3.235621989E-005
 8.029999733E+000 -3.239995931E-005
 8.039999962E+000 -3.244211985E-005
 8.050000191E+000 -3.248322537E-005
 8.060000420E+000 -3.252275201E-005
 8.069999695E+000 -3.256122000E-005
 8.079999924E+000 -3.259916775E-005
 8.090000153E+000 -3.263552571E-005
 8.100000381E+000 -3.267136708E-005
 8.109999657E+000 -3.270614616E-005
 8.119999886E+000 -3.274040137E-005
 8.130000114E+000 -3.277360520E-005
 8.140000343E+000 -3.280627425E-005
 8.149999619E+000 -3.283789920E-005
 8.159999847E+000 -3.286951687E-005
 8.170000076E+000 -3.290008317E-005
 8.180000305E+000 -3.293064583E-005
 8.189999580E+000 -3.296016075E-005
 8.199999809E+000 -3.298967204E-005
 8.210000038E+000 -3.301813194E-005
 8.220000267E+000 -3.304659185E-005
 8.229999542E+000 -3.307452062E-005
 8.239999771E+000 -3.310245302E-005
 8.250000000E+000 -3.312985427E-005
 8.260000229E+000 -3.315673166E-005
 8.270000458E+000 -3.318308154E-005
 8.279999733E+000 -3.320943506E-005
 8.289999962E+000 -3.323525743E-005
 8.300000191E+000 -3.326107981E-005