TITLE     = ""
VARIABLES = "V1"
"V2"
"V3"
"V4"
"V5"
"V6"
"V7"
"V8"
"V9"
"V10"
"V11"
ZONE T="ZONE 001"
 I=2666, J=1, K=1,F=POINT
DT=(SINGLE SINGLE SINGLE SINGLE SINGLE SINGLE SINGLE SINGLE SINGLE SINGLE SINGLE )
 1.499999966E-002 -7.035500336E+001 2.800000086E-002 9.850000143E-001 6.199999899E-002 6.486816565E-004 -7.482867688E-002 5.910533946E-004 5.700707901E-003 1.239733421E-003 5.371696316E-003
 2.999999933E-002 -7.030999756E+001 2.800000086E-002 9.850000143E-001 6.199999899E-002 6.486816565E-004 -7.479947805E-002 5.910533946E-004 5.727308802E-003 1.239733421E-003 9.928070940E-003
 4.500000179E-002 -7.026499939E+001 2.800000086E-002 9.850000143E-001 6.199999899E-002 6.486816565E-004 -7.477029413E-002 5.910533946E-004 5.753905047E-003 1.239733421E-003 1.448367443E-002
 5.999999866E-002 -7.022000122E+001 2.800000086E-002 9.850000143E-001 6.199999899E-002 6.486816565E-004 -7.474110276E-002 5.910533946E-004 5.780501757E-003 1.239733421E-003 1.903927699E-002
 7.500000298E-002 -7.017600250E+001 2.800000086E-002 9.850000143E-001 6.199999899E-002 6.486816565E-004 -7.471255958E-002 5.910533946E-004 5.806507077E-003 1.239733421E-003 2.349369600E-002
 9.000000358E-002 -7.013099670E+001 2.800000086E-002 9.850000143E-001 6.199999899E-002 6.486816565E-004 -7.468336821E-002 5.910533946E-004 5.833107978E-003 1.239733421E-003 2.805007063E-002
 1.049999967E-001 -7.008599854E+001 2.800000086E-002 9.850000143E-001 6.199999899E-002 6.486816565E-004 -7.465417683E-002 5.910533946E-004 5.859704223E-003 1.239733421E-003 3.260567412E-002
 1.199999973E-001 -7.004199982E+001 2.899999917E-002 9.850000143E-001 6.199999899E-002 7.206948940E-004 -8.291018009E-002 5.910533946E-004 5.885710008E-003 1.311750733E-003 2.877554670E-002
 1.350000054E-001 -6.999700165E+001 2.899999917E-002 9.850000143E-001 6.199999899E-002 7.206948940E-004 -8.287775517E-002 5.910533946E-004 5.912306253E-003 1.311750733E-003 3.333438933E-002
 1.500000060E-001 -6.995300293E+001 2.899999917E-002 9.850000143E-001 6.199999899E-002 7.206948940E-004 -8.284604549E-002 5.910533946E-004 5.938311573E-003 1.311750733E-003 3.779197484E-002
 1.650000066E-001 -6.990799713E+001 2.899999917E-002 9.850000143E-001 6.199999899E-002 7.206948940E-004 -8.281360567E-002 5.910533946E-004 5.964912474E-003 1.311750733E-003 4.235159233E-002
 1.800000072E-001 -6.986399841E+001 2.899999917E-002 9.850000143E-001 6.199999899E-002 7.206948940E-004 -8.278189600E-002 5.910533946E-004 5.990918260E-003 1.311750733E-003 4.680917785E-002
 1.949999928E-001 -6.981900024E+001 2.899999917E-002 9.850000143E-001 6.199999899E-002 7.206948940E-004 -8.274947107E-002 5.910533946E-004 6.017514504E-003 1.311750733E-003 5.136802420E-002
 2.099999934E-001 -6.977500153E+001 2.899999917E-002 9.850000143E-001 6.199999899E-002 7.206948940E-004 -8.271776140E-002 5.910533946E-004 6.043520290E-003 1.311750733E-003 5.582560971E-002
 2.249999940E-001 -6.973100281E+001 2.899999917E-002 9.850000143E-001 6.199999899E-002 7.206948940E-004 -8.268605173E-002 5.910533946E-004 6.069525611E-003 1.311750733E-003 6.028319523E-002
 2.399999946E-001 -6.968699646E+001 2.899999917E-002 9.850000143E-001 6.199999899E-002 7.206948940E-004 -8.265433460E-002 5.910533946E-004 6.095536053E-003 1.311750733E-003 6.474155933E-002
 2.549999952E-001 -6.964299774E+001 2.899999917E-002 9.850000143E-001 6.199999899E-002 7.206948940E-004 -8.262262493E-002 5.910533946E-004 6.121541373E-003 1.311750733E-003 6.919914484E-002
 2.700000107E-001 -6.959899902E+001 2.999999933E-002 9.850000143E-001 6.199999899E-002 7.978499634E-004 -9.143280983E-002 5.910533946E-004 6.147547159E-003 1.388901495E-003 6.481483579E-002
 2.849999964E-001 -6.955500031E+001 2.999999933E-002 9.850000143E-001 6.199999899E-002 7.978499634E-004 -9.139770269E-002 5.910533946E-004 6.173552480E-003 1.388901495E-003 6.927581877E-002
 3.000000119E-001 -6.951100159E+001 2.999999933E-002 9.850000143E-001 6.199999899E-002 7.978499634E-004 -9.136259556E-002 5.910533946E-004 6.199558266E-003 1.388901495E-003 7.373680174E-002
 3.149999976E-001 -6.946700287E+001 2.999999933E-002 9.850000143E-001 6.199999899E-002 7.978499634E-004 -9.132749587E-002 5.910533946E-004 6.225563586E-003 1.388901495E-003 7.819778472E-002
 3.300000131E-001 -6.942299652E+001 2.999999933E-002 9.850000143E-001 6.199999899E-002 7.978499634E-004 -9.129238129E-002 5.910533946E-004 6.251574028E-003 1.388901495E-003 8.265953511E-002
 3.449999988E-001 -6.937899780E+001 2.999999933E-002 9.850000143E-001 6.199999899E-002 7.978499634E-004 -9.125728160E-002 5.910533946E-004 6.277579349E-003 1.388901495E-003 8.712051809E-002
 3.600000143E-001 -6.933499908E+001 2.999999933E-002 9.840000272E-001 6.199999899E-002 7.970399456E-004 -9.112956375E-002 5.910533946E-004 6.303585134E-003 1.388096833E-003 9.167411178E-002
 3.750000000E-001 -6.929199982E+001 2.999999933E-002 9.840000272E-001 6.199999899E-002 7.970399456E-004 -9.109529108E-002 5.910533946E-004 6.328999996E-003 1.388096833E-003 9.603372961E-002
 3.899999857E-001 -6.924800110E+001 2.999999933E-002 9.840000272E-001 6.199999899E-002 7.970399456E-004 -9.106022120E-002 5.910533946E-004 6.355005316E-003 1.388096833E-003 1.004946753E-001
 4.050000012E-001 -6.920400238E+001 2.999999933E-002 9.840000272E-001 6.199999899E-002 7.970399456E-004 -9.102515131E-002 5.910533946E-004 6.381011102E-003 1.388096833E-003 1.049556211E-001
 4.199999869E-001 -6.916100311E+001 3.099999949E-002 9.840000272E-001 6.199999899E-002 8.794303285E-004 -1.003966480E-001 5.910533946E-004 6.406425964E-003 1.470485353E-003 9.990946949E-002
 4.350000024E-001 -6.911699677E+001 3.099999949E-002 9.840000272E-001 6.199999899E-002 8.794303285E-004 -1.003579423E-001 5.910533946E-004 6.432435941E-003 1.470485353E-003 1.043748111E-001
 4.499999881E-001 -6.907399750E+001 3.099999949E-002 9.840000272E-001 6.199999899E-002 8.794303285E-004 -1.003201306E-001 5.910533946E-004 6.457850803E-003 1.470485353E-003 1.087379679E-001
 4.650000036E-001 -6.903099823E+001 3.099999949E-002 9.840000272E-001 6.199999899E-002 8.794303285E-004 -1.002823114E-001 5.910533946E-004 6.483265664E-003 1.470485353E-003 1.131011248E-001
 4.799999893E-001 -6.898699951E+001 3.099999949E-002 9.840000272E-001 6.199999899E-002 8.794303285E-004 -1.002436206E-001 5.910533946E-004 6.509271450E-003 1.470485353E-003 1.175656989E-001
 4.950000048E-001 -6.894400024E+001 3.099999949E-002 9.840000272E-001 6.199999899E-002 8.794303285E-004 -1.002058089E-001 5.910533946E-004 6.534686312E-003 1.470485353E-003 1.219288558E-001
 5.099999905E-001 -6.890100098E+001 3.099999949E-002 9.840000272E-001 6.199999899E-002 8.794303285E-004 -1.001679897E-001 5.910533946E-004 6.560101174E-003 1.470485353E-003 1.262920052E-001
 5.249999762E-001 -6.885800171E+001 3.099999949E-002 9.840000272E-001 6.199999899E-002 8.794303285E-004 -1.001301780E-001 5.910533946E-004 6.585516036E-003 1.470485353E-003 1.306551695E-001
 5.400000215E-001 -6.881400299E+001 3.099999949E-002 9.840000272E-001 6.199999899E-002 8.794303285E-004 -1.000914797E-001 5.910533946E-004 6.611521356E-003 1.470485353E-003 1.351197362E-001
 5.550000072E-001 -6.877100372E+001 3.200000152E-002 9.829999804E-001 6.199999899E-002 9.663284291E-004 -1.099401563E-001 5.910533946E-004 6.636936218E-003 1.557381474E-003 1.295964122E-001
 5.699999928E-001 -6.872799683E+001 3.200000152E-002 9.829999804E-001 6.199999899E-002 9.663284291E-004 -1.098985970E-001 5.910533946E-004 6.662355736E-003 1.557381474E-003 1.339640766E-001
 5.849999785E-001 -6.868499756E+001 3.200000152E-002 9.829999804E-001 6.199999899E-002 9.663284291E-004 -1.098570451E-001 5.910533946E-004 6.687770598E-003 1.557381474E-003 1.383309662E-001
 6.000000238E-001 -6.864199829E+001 3.200000152E-002 9.829999804E-001 6.199999899E-002 9.663284291E-004 -1.098154932E-001 5.910533946E-004 6.713185459E-003 1.557381474E-003 1.426978558E-001
 6.150000095E-001 -6.859999847E+001 3.200000152E-002 9.829999804E-001 6.199999899E-002 9.663284291E-004 -1.097749099E-001 5.910533946E-004 6.738009863E-003 1.557381474E-003 1.469632536E-001
 6.299999952E-001 -6.855699921E+001 3.200000152E-002 9.829999804E-001 6.199999899E-002 9.663284291E-004 -1.097333580E-001 5.910533946E-004 6.763424724E-003 1.557381474E-003 1.513301432E-001
 6.449999809E-001 -6.851399994E+001 3.200000152E-002 9.829999804E-001 6.300000101E-002 9.663284291E-004 -1.096918061E-001 6.301184767E-004 7.237541024E-003 1.596444868E-003 1.561457366E-001
 6.600000262E-001 -6.847100067E+001 3.200000152E-002 9.829999804E-001 6.300000101E-002 9.663284291E-004 -1.096502542E-001 6.301184767E-004 7.264635526E-003 1.596444868E-003 1.605143100E-001
 6.750000119E-001 -6.842900085E+001 3.200000152E-002 9.829999804E-001 6.300000101E-002 9.663284291E-004 -1.096096709E-001 6.301184767E-004 7.291100454E-003 1.596444868E-003 1.647813469E-001
 6.899999976E-001 -6.838600159E+001 3.200000152E-002 9.829999804E-001 6.300000101E-002 9.663284291E-004 -1.095681190E-001 6.301184767E-004 7.318194956E-003 1.596444868E-003 1.691499203E-001
 7.049999833E-001 -6.834300232E+001 3.299999982E-002 9.829999804E-001 6.300000101E-002 1.059782109E-003 -1.201188862E-001 6.301184767E-004 7.345289458E-003 1.689897501E-003 1.629261672E-001
 7.200000286E-001 -6.830100250E+001 3.299999982E-002 9.829999804E-001 6.300000101E-002 1.059782109E-003 -1.200743765E-001 6.301184767E-004 7.371754386E-003 1.689897501E-003 1.671971381E-001
 7.350000143E-001 -6.825800323E+001 3.299999982E-002 9.819999933E-001 6.300000101E-002 1.058703987E-003 -1.199067011E-001 6.301184767E-004 7.398849353E-003 1.688824617E-003 1.716918200E-001
 7.500000000E-001 -6.821600342E+001 3.299999982E-002 9.819999933E-001 6.300000101E-002 1.058703987E-003 -1.198622361E-001 6.301184767E-004 7.425313815E-003 1.688824617E-003 1.759627312E-001
 7.649999857E-001 -6.817299652E+001 3.299999982E-002 9.819999933E-001 6.300000101E-002 1.058703987E-003 -1.198167056E-001 6.301184767E-004 7.452413440E-003 1.688824617E-003 1.803360581E-001
 7.799999714E-001 -6.813099670E+001 3.299999982E-002 9.819999933E-001 6.300000101E-002 1.058703987E-003 -1.197722405E-001 6.301184767E-004 7.478878368E-003 1.688824617E-003 1.846069694E-001
 7.950000167E-001 -6.808899689E+001 3.299999982E-002 9.819999933E-001 6.300000101E-002 1.058703987E-003 -1.197277755E-001 6.301184767E-004 7.505343296E-003 1.688824617E-003 1.888778806E-001
 8.100000024E-001 -6.804699707E+001 3.299999982E-002 9.819999933E-001 6.300000101E-002 1.058703987E-003 -1.196833104E-001 6.301184767E-004 7.531808224E-003 1.688824617E-003 1.931487918E-001
 8.249999881E-001 -6.800399780E+001 3.299999982E-002 9.819999933E-001 6.300000101E-002 1.058703987E-003 -1.196377873E-001 6.301184767E-004 7.558902726E-003 1.688824617E-003 1.975213438E-001
 8.399999738E-001 -6.796199799E+001 3.400000185E-002 9.819999933E-001 6.300000101E-002 1.157896011E-003 -1.307982504E-001 6.301184767E-004 7.585367654E-003 1.788014197E-003 1.905873269E-001
 8.550000191E-001 -6.791999817E+001 3.400000185E-002 9.819999933E-001 6.300000101E-002 1.157896011E-003 -1.307496130E-001 6.301184767E-004 7.611832581E-003 1.788014197E-003 1.948623955E-001
 8.700000048E-001 -6.787799835E+001 3.400000185E-002 9.819999933E-001 6.300000101E-002 1.157896011E-003 -1.307009906E-001 6.301184767E-004 7.638297044E-003 1.788014197E-003 1.991374791E-001
 8.849999905E-001 -6.783599854E+001 3.400000185E-002 9.819999933E-001 6.300000101E-002 1.157896011E-003 -1.306523532E-001 6.301184767E-004 7.664761972E-003 1.788014197E-003 2.034125477E-001
 8.999999762E-001 -6.779399872E+001 3.400000185E-002 9.810000062E-001 6.300000101E-002 1.156716957E-003 -1.304707229E-001 6.301184767E-004 7.691226900E-003 1.786837005E-003 2.078206241E-001
 9.150000215E-001 -6.775199890E+001 3.400000185E-002 9.810000062E-001 6.300000101E-002 1.156716957E-003 -1.304221451E-001 6.301184767E-004 7.717691828E-003 1.786837005E-003 2.120956630E-001
 9.300000072E-001 -6.770999908E+001 3.400000185E-002 9.810000062E-001 6.300000101E-002 1.156716957E-003 -1.303735673E-001 6.301184767E-004 7.744156756E-003 1.786837005E-003 2.163706869E-001
 9.449999928E-001 -6.766799927E+001 3.400000185E-002 9.810000062E-001 6.300000101E-002 1.156716957E-003 -1.303249747E-001 6.301184767E-004 7.770621683E-003 1.786837005E-003 2.206457108E-001
 9.599999785E-001 -6.762699890E+001 3.400000185E-002 9.810000062E-001 6.300000101E-002 1.156716957E-003 -1.302775592E-001 6.301184767E-004 7.796456572E-003 1.786837005E-003 2.248190045E-001
 9.750000238E-001 -6.758499908E+001 3.500000015E-002 9.810000062E-001 6.300000101E-002 1.261811238E-003 -1.420610249E-001 6.301184767E-004 7.822921500E-003 1.891927444E-003 2.172619849E-001
 9.900000095E-001 -6.754299927E+001 3.500000015E-002 9.810000062E-001 6.300000101E-002 1.261811238E-003 -1.420080215E-001 6.301184767E-004 7.849385962E-003 1.891927444E-003 2.215414345E-001
 1.004999995E+000 -6.750099945E+001 3.500000015E-002 9.810000062E-001 6.300000101E-002 1.261811238E-003 -1.419550329E-001 6.301184767E-004 7.875851355E-003 1.891927444E-003 2.258208841E-001
 1.019999981E+000 -6.745999908E+001 3.500000015E-002 9.810000062E-001 6.300000101E-002 1.261811238E-003 -1.419032961E-001 6.301184767E-004 7.901686244E-003 1.891927444E-003 2.299984843E-001
 1.034999967E+000 -6.741799927E+001 3.500000015E-002 9.810000062E-001 6.300000101E-002 1.261811238E-003 -1.418502927E-001 6.301184767E-004 7.928151637E-003 1.891927444E-003 2.342779189E-001
 1.049999952E+000 -6.737699890E+001 3.500000015E-002 9.810000062E-001 6.300000101E-002 1.261811238E-003 -1.417985708E-001 6.301184767E-004 7.953986526E-003 1.891927444E-003 2.384555340E-001
 1.065000057E+000 -6.733499908E+001 3.500000015E-002 9.800000191E-001 6.300000101E-002 1.260525081E-003 -1.416010857E-001 6.301184767E-004 7.980450988E-003 1.890645945E-003 2.428794652E-001
 1.080000043E+000 -6.729399872E+001 3.500000015E-002 9.800000191E-001 6.400000304E-002 1.260525081E-003 -1.415493935E-001 6.710887537E-004 8.526855148E-003 1.931616687E-003 2.475775927E-001
 1.095000029E+000 -6.725199890E+001 3.500000015E-002 9.800000191E-001 6.400000304E-002 1.260525081E-003 -1.414964497E-001 6.710887537E-004 8.555040695E-003 1.931616687E-003 2.518586814E-001
 1.110000014E+000 -6.721099854E+001 3.599999845E-002 9.800000191E-001 6.400000304E-002 1.371686230E-003 -1.539182812E-001 6.710887537E-004 8.582555689E-003 2.042771783E-003 2.435644120E-001
 1.125000000E+000 -6.716999817E+001 3.599999845E-002 9.800000191E-001 6.400000304E-002 1.371686230E-003 -1.538620442E-001 6.710887537E-004 8.610069752E-003 2.042771783E-003 2.477482110E-001
 1.139999986E+000 -6.712799835E+001 3.599999845E-002 9.800000191E-001 6.400000304E-002 1.371686230E-003 -1.538044363E-001 6.710887537E-004 8.638255298E-003 2.042771783E-003 2.520339787E-001
 1.154999971E+000 -6.708699799E+001 3.599999845E-002 9.800000191E-001 6.400000304E-002 1.371686230E-003 -1.537481993E-001 6.710887537E-004 8.665770292E-003 2.042771783E-003 2.562177777E-001
 1.169999957E+000 -6.704599762E+001 3.599999845E-002 9.800000191E-001 6.400000304E-002 1.371686230E-003 -1.536919475E-001 6.710887537E-004 8.693285286E-003 2.042771783E-003 2.604015768E-001
 1.184999943E+000 -6.700499725E+001 3.599999845E-002 9.800000191E-001 6.400000304E-002 1.371686230E-003 -1.536357105E-001 6.710887537E-004 8.720800281E-003 2.042771783E-003 2.645853460E-001
 1.200000048E+000 -6.696399689E+001 3.599999845E-002 9.789999723E-001 6.400000304E-002 1.370286453E-003 -1.534227580E-001 6.710887537E-004 8.748315275E-003 2.041378524E-003 2.689258754E-001
 1.215000033E+000 -6.692299652E+001 3.599999845E-002 9.789999723E-001 6.400000304E-002 1.370286453E-003 -1.533665657E-001 6.710887537E-004 8.775830269E-003 2.041378524E-003 2.731096148E-001
 1.230000019E+000 -6.688200378E+001 3.599999845E-002 9.789999723E-001 6.400000304E-002 1.370286453E-003 -1.533104032E-001 6.710887537E-004 8.803339675E-003 2.041378524E-003 2.772925496E-001
 1.245000005E+000 -6.684100342E+001 3.700000048E-002 9.789999723E-001 6.400000304E-002 1.487678615E-003 -1.663834751E-001 6.710887537E-004 8.830854669E-003 2.158769872E-003 2.683470547E-001
 1.259999990E+000 -6.680000305E+001 3.700000048E-002 9.789999723E-001 6.400000304E-002 1.487678615E-003 -1.663224697E-001 6.710887537E-004 8.858369663E-003 2.158769872E-003 2.725355923E-001
 1.274999976E+000 -6.675900269E+001 3.700000048E-002 9.789999723E-001 6.400000304E-002 1.487678615E-003 -1.662614793E-001 6.710887537E-004 8.885884658E-003 2.158769872E-003 2.767241299E-001
 1.289999962E+000 -6.671800232E+001 3.700000048E-002 9.789999723E-001 6.400000304E-002 1.487678615E-003 -1.662004888E-001 6.710887537E-004 8.913399652E-003 2.158769872E-003 2.809126973E-001
 1.304999948E+000 -6.667700195E+001 3.700000048E-002 9.789999723E-001 6.400000304E-002 1.487678615E-003 -1.661394835E-001 6.710887537E-004 8.940914646E-003 2.158769872E-003 2.851012349E-001
 1.320000052E+000 -6.663600159E+001 3.700000048E-002 9.789999723E-001 6.400000304E-002 1.487678615E-003 -1.660784930E-001 6.710887537E-004 8.968429640E-003 2.158769872E-003 2.892897725E-001
 1.335000038E+000 -6.659600067E+001 3.700000048E-002 9.789999723E-001 6.400000304E-002 1.487678615E-003 -1.660189778E-001 6.710887537E-004 8.995273151E-003 2.158769872E-003 2.933762074E-001
 1.350000024E+000 -6.655500031E+001 3.700000048E-002 9.779999852E-001 6.400000304E-002 1.486159046E-003 -1.657884717E-001 6.710887537E-004 9.022788145E-003 2.157249954E-003 2.977342904E-001
 1.365000010E+000 -6.651399994E+001 3.799999878E-002 9.779999852E-001 6.400000304E-002 1.609944273E-003 -1.795313358E-001 6.710887537E-004 9.050303139E-003 2.281033900E-003 2.881189883E-001
 1.379999995E+000 -6.647399902E+001 3.799999878E-002 9.779999852E-001 6.400000304E-002 1.609944273E-003 -1.794669330E-001 6.710887537E-004 9.077147581E-003 2.281033900E-003 2.922103107E-001
 1.394999981E+000 -6.643299866E+001 3.799999878E-002 9.779999852E-001 6.499999762E-002 1.609944273E-003 -1.794009209E-001 7.140248781E-004 9.687176906E-003 2.323971596E-003 2.969864011E-001
 1.409999967E+000 -6.639299774E+001 3.799999878E-002 9.779999852E-001 6.499999762E-002 1.609944273E-003 -1.793365180E-001 7.140248781E-004 9.715738706E-003 2.323971596E-003 3.010794520E-001
 1.424999952E+000 -6.635199738E+001 3.799999878E-002 9.779999852E-001 6.499999762E-002 1.609944273E-003 -1.792705208E-001 7.140248781E-004 9.745013900E-003 2.323971596E-003 3.052747548E-001
 1.440000057E+000 -6.631199646E+001 3.799999878E-002 9.779999852E-001 6.499999762E-002 1.609944273E-003 -1.792061180E-001 7.140248781E-004 9.773575701E-003 2.323971596E-003 3.093678057E-001
 1.455000043E+000 -6.627100372E+001 3.799999878E-002 9.779999852E-001 6.499999762E-002 1.609944273E-003 -1.791401207E-001 7.140248781E-004 9.802845307E-003 2.323971596E-003 3.135623634E-001
 1.470000029E+000 -6.623100281E+001 3.799999878E-002 9.779999852E-001 6.499999762E-002 1.609944273E-003 -1.790757179E-001 7.140248781E-004 9.831407107E-003 2.323971596E-003 3.176554143E-001
 1.485000014E+000 -6.619000244E+001 3.799999878E-002 9.769999981E-001 6.499999762E-002 1.608298160E-003 -1.788266748E-001 7.140248781E-004 9.860682301E-003 2.322325017E-003 3.220337629E-001
 1.500000000E+000 -6.615000153E+001 3.900000080E-002 9.769999981E-001 6.499999762E-002 1.738640014E-003 -1.932498366E-001 7.140248781E-004 9.889244102E-003 2.452665474E-003 3.116392493E-001
 1.514999986E+000 -6.611000061E+001 3.900000080E-002 9.769999981E-001 6.499999762E-002 1.738640014E-003 -1.931802928E-001 7.140248781E-004 9.917804971E-003 2.452665474E-003 3.157374561E-001
 1.529999971E+000 -6.606900024E+001 3.900000080E-002 9.769999981E-001 6.499999762E-002 1.738640014E-003 -1.931090057E-001 7.140248781E-004 9.947081096E-003 2.452665474E-003 3.199380636E-001
 1.544999957E+000 -6.602899933E+001 3.900000080E-002 9.769999981E-001 6.499999762E-002 1.738640014E-003 -1.930394620E-001 7.140248781E-004 9.975641966E-003 2.452665474E-003 3.240362406E-001
 1.559999943E+000 -6.598899841E+001 3.900000080E-002 9.769999981E-001 6.499999762E-002 1.738640014E-003 -1.929699183E-001 7.140248781E-004 1.000420377E-002 2.452665474E-003 3.281344473E-001
 1.575000048E+000 -6.594899750E+001 3.900000080E-002 9.769999981E-001 6.499999762E-002 1.738640014E-003 -1.929003596E-001 7.140248781E-004 1.003276557E-002 2.452665474E-003 3.322326541E-001
 1.590000033E+000 -6.590899658E+001 3.900000080E-002 9.769999981E-001 6.499999762E-002 1.738640014E-003 -1.928308159E-001 7.140248781E-004 1.006132737E-002 2.452665474E-003 3.363308609E-001
 1.605000019E+000 -6.586900330E+001 3.900000080E-002 9.769999981E-001 6.499999762E-002 1.738640014E-003 -1.927612871E-001 7.140248781E-004 1.008988358E-002 2.452665474E-003 3.404282629E-001
 1.620000005E+000 -6.582900238E+001 3.999999911E-002 9.760000110E-001 6.499999762E-002 1.873919857E-003 -2.076846659E-001 7.140248781E-004 1.011844538E-002 2.587945666E-003 3.295335472E-001
 1.634999990E+000 -6.578900146E+001 3.999999911E-002 9.760000110E-001 6.499999762E-002 1.873919857E-003 -2.076097131E-001 7.140248781E-004 1.014700718E-002 2.587945666E-003 3.336371481E-001
 1.649999976E+000 -6.574900055E+001 3.999999911E-002 9.760000110E-001 6.499999762E-002 1.873919857E-003 -2.075347602E-001 7.140248781E-004 1.017556805E-002 2.587945666E-003 3.377407491E-001
 1.664999962E+000 -6.570899963E+001 3.999999911E-002 9.760000110E-001 6.599999964E-002 1.873919857E-003 -2.074597925E-001 7.589894230E-004 1.084671821E-002 2.632909920E-003 3.424869478E-001
 1.679999948E+000 -6.566899872E+001 3.999999911E-002 9.760000110E-001 6.599999964E-002 1.873919857E-003 -2.073848397E-001 7.589894230E-004 1.087707840E-002 2.632909920E-003 3.465923667E-001
 1.695000052E+000 -6.562899780E+001 3.999999911E-002 9.760000110E-001 6.599999964E-002 1.873919857E-003 -2.073098868E-001 7.589894230E-004 1.090743858E-002 2.632909920E-003 3.506977856E-001
 1.710000038E+000 -6.558899689E+001 3.999999911E-002 9.760000110E-001 6.599999964E-002 1.873919857E-003 -2.072349191E-001 7.589894230E-004 1.093779877E-002 2.632909920E-003 3.548031747E-001
 1.725000024E+000 -6.554900360E+001 3.999999911E-002 9.760000110E-001 6.599999964E-002 1.873919857E-003 -2.071599811E-001 7.589894230E-004 1.096815336E-002 2.632909920E-003 3.589078188E-001
 1.740000010E+000 -6.551000214E+001 4.100000113E-002 9.750000238E-001 6.599999964E-002 2.015939448E-003 -2.227814794E-001 7.589894230E-004 1.099775545E-002 2.774925437E-003 3.472160697E-001
 1.754999995E+000 -6.547000122E+001 4.100000113E-002 9.750000238E-001 6.599999964E-002 2.015939448E-003 -2.227008343E-001 7.589894230E-004 1.102811564E-002 2.774925437E-003 3.513271511E-001
 1.769999981E+000 -6.543000031E+001 4.100000113E-002 9.750000238E-001 6.599999964E-002 2.015939448E-003 -2.226201892E-001 7.589894230E-004 1.105847582E-002 2.774925437E-003 3.554382622E-001
 1.784999967E+000 -6.538999939E+001 4.100000113E-002 9.750000238E-001 6.599999964E-002 2.015939448E-003 -2.225395590E-001 7.589894230E-004 1.108883601E-002 2.774925437E-003 3.595493436E-001
 1.799999952E+000 -6.535099792E+001 4.100000113E-002 9.750000238E-001 6.599999964E-002 2.015939448E-003 -2.224609256E-001 7.589894230E-004 1.111843809E-002 2.774925437E-003 3.635577261E-001
 1.815000057E+000 -6.531099701E+001 4.100000113E-002 9.750000238E-001 6.599999964E-002 2.015939448E-003 -2.223802954E-001 7.589894230E-004 1.114879828E-002 2.774925437E-003 3.676688075E-001
 1.830000043E+000 -6.527200317E+001 4.100000113E-002 9.750000238E-001 6.599999964E-002 2.015939448E-003 -2.223016769E-001 7.589894230E-004 1.117839385E-002 2.774925437E-003 3.716763854E-001
 1.845000029E+000 -6.523200226E+001 4.100000113E-002 9.750000238E-001 6.599999964E-002 2.015939448E-003 -2.222210467E-001 7.589894230E-004 1.120875403E-002 2.774925437E-003 3.757874966E-001
 1.860000014E+000 -6.519300079E+001 4.199999943E-002 9.739999771E-001 6.599999964E-002 2.164851176E-003 -2.385514528E-001 7.589894230E-004 1.123835612E-002 2.923840191E-003 3.633868098E-001
 1.875000000E+000 -6.515299988E+001 4.199999943E-002 9.739999771E-001 6.599999964E-002 2.164851176E-003 -2.384648621E-001 7.589894230E-004 1.126871631E-002 2.923840191E-003 3.675038815E-001
 1.889999986E+000 -6.511399841E+001 4.199999943E-002 9.739999771E-001 6.599999964E-002 2.164851176E-003 -2.383804172E-001 7.589894230E-004 1.129831746E-002 2.923840191E-003 3.715180457E-001
 1.904999971E+000 -6.507399750E+001 4.199999943E-002 9.739999771E-001 6.599999964E-002 2.164851176E-003 -2.382938266E-001 7.589894230E-004 1.132867765E-002 2.923840191E-003 3.756350875E-001
 1.919999957E+000 -6.503500366E+001 4.199999943E-002 9.739999771E-001 6.700000167E-002 2.164851176E-003 -2.382094115E-001 8.060449036E-004 1.206245925E-002 2.970898058E-003 3.803526759E-001
 1.934999943E+000 -6.499500275E+001 4.199999943E-002 9.739999771E-001 6.700000167E-002 2.164851176E-003 -2.381228209E-001 8.060449036E-004 1.209470164E-002 2.970898058E-003 3.844716251E-001
 1.950000048E+000 -6.495600128E+001 4.199999943E-002 9.739999771E-001 6.700000167E-002 2.164851176E-003 -2.380383909E-001 8.060449036E-004 1.212613843E-002 2.970898058E-003 3.884876370E-001
 1.965000033E+000 -6.491699982E+001 4.199999943E-002 9.739999771E-001 6.700000167E-002 2.164851176E-003 -2.379539460E-001 8.060449036E-004 1.215757523E-002 2.970898058E-003 3.925036490E-001
 1.980000019E+000 -6.487699890E+001 4.300000146E-002 9.729999900E-001 6.700000167E-002 2.320809523E-003 -2.550036013E-001 8.060449036E-004 1.218981855E-002 3.126853611E-003 3.794863522E-001
 1.995000005E+000 -6.483799744E+001 4.300000146E-002 9.729999900E-001 6.700000167E-002 2.320809523E-003 -2.549130619E-001 8.060449036E-004 1.222125534E-002 3.126853611E-003 3.835084438E-001
 2.009999990E+000 -6.479900360E+001 4.300000146E-002 9.729999900E-001 6.700000167E-002 2.320809523E-003 -2.548225820E-001 8.060449036E-004 1.225268561E-002 3.126853611E-003 3.875297606E-001
 2.025000095E+000 -6.476000214E+001 4.300000146E-002 9.729999900E-001 6.700000167E-002 2.320809523E-003 -2.547320724E-001 8.060449036E-004 1.228412241E-002 3.126853611E-003 3.915518522E-001
 2.039999962E+000 -6.472100067E+001 4.300000146E-002 9.729999900E-001 6.700000167E-002 2.320809523E-003 -2.546415329E-001 8.060449036E-004 1.231556013E-002 3.126853611E-003 3.955739439E-001
 2.055000067E+000 -6.468099976E+001 4.300000146E-002 9.729999900E-001 6.700000167E-002 2.320809523E-003 -2.545486987E-001 8.060449036E-004 1.234780252E-002 3.126853611E-003 3.996991217E-001
 2.069999933E+000 -6.464199829E+001 4.300000146E-002 9.729999900E-001 6.700000167E-002 2.320809523E-003 -2.544581890E-001 8.060449036E-004 1.237923931E-002 3.126853611E-003 4.037212133E-001
 2.085000038E+000 -6.460299683E+001 4.300000146E-002 9.729999900E-001 6.700000167E-002 2.320809523E-003 -2.543676794E-001 8.060449036E-004 1.241067611E-002 3.126853611E-003 4.077433050E-001
 2.099999905E+000 -6.456400299E+001 4.399999976E-002 9.720000029E-001 6.700000167E-002 2.483965363E-003 -2.721531987E-001 8.060449036E-004 1.244210731E-002 3.290013876E-003 3.938886225E-001
 2.115000010E+000 -6.452500153E+001 4.399999976E-002 9.720000029E-001 6.700000167E-002 2.483965363E-003 -2.720563114E-001 8.060449036E-004 1.247354411E-002 3.290013876E-003 3.979170620E-001
 2.130000114E+000 -6.448600006E+001 4.399999976E-002 9.720000029E-001 6.800000370E-002 2.483965363E-003 -2.719594240E-001 8.552552317E-004 1.326842979E-002 3.339217510E-003 4.027089775E-001
 2.144999981E+000 -6.444699860E+001 4.399999976E-002 9.720000029E-001 6.800000370E-002 2.483965363E-003 -2.718625665E-001 8.552552317E-004 1.330178604E-002 3.339217510E-003 4.067393541E-001
 2.160000086E+000 -6.440799713E+001 4.399999976E-002 9.720000029E-001 6.800000370E-002 2.483965363E-003 -2.717656791E-001 8.552552317E-004 1.333514228E-002 3.339217510E-003 4.107697606E-001
 2.174999952E+000 -6.436900330E+001 4.399999976E-002 9.720000029E-001 6.800000370E-002 2.483965363E-003 -2.716688216E-001 8.552552317E-004 1.336849201E-002 3.339217510E-003 4.147993326E-001
 2.190000057E+000 -6.433000183E+001 4.399999976E-002 9.720000029E-001 6.800000370E-002 2.483965363E-003 -2.715719342E-001 8.552552317E-004 1.340184826E-002 3.339217510E-003 4.188297093E-001
 2.204999924E+000 -6.429100037E+001 4.500000179E-002 9.710000157E-001 6.800000370E-002 2.654471667E-003 -2.901098430E-001 8.552552317E-004 1.343520358E-002 3.509724047E-003 4.042253196E-001
 2.220000029E+000 -6.425299835E+001 4.500000179E-002 9.710000157E-001 6.800000370E-002 2.654471667E-003 -2.900089920E-001 8.552552317E-004 1.346770581E-002 3.509724047E-003 4.081588984E-001
 2.234999895E+000 -6.421399689E+001 4.500000179E-002 9.710000157E-001 6.800000370E-002 2.654471667E-003 -2.899054587E-001 8.552552317E-004 1.350106206E-002 3.509724047E-003 4.121959209E-001
 2.250000000E+000 -6.417500305E+001 4.500000179E-002 9.710000157E-001 6.800000370E-002 2.654471667E-003 -2.898019552E-001 8.552552317E-004 1.353441179E-002 3.509724047E-003 4.162321687E-001
 2.265000105E+000 -6.413600159E+001 4.500000179E-002 9.710000157E-001 6.800000370E-002 2.654471667E-003 -2.896984220E-001 8.552552317E-004 1.356776711E-002 3.509724047E-003 4.202691913E-001
 2.279999971E+000 -6.409700012E+001 4.500000179E-002 9.710000157E-001 6.800000370E-002 2.654471667E-003 -2.895948887E-001 8.552552317E-004 1.360112336E-002 3.509724047E-003 4.243062139E-001
 2.295000076E+000 -6.405899811E+001 4.500000179E-002 9.710000157E-001 6.800000370E-002 2.654471667E-003 -2.894940078E-001 8.552552317E-004 1.363362558E-002 3.509724047E-003 4.282397926E-001
 2.309999943E+000 -6.401999664E+001 4.500000179E-002 9.710000157E-001 6.800000370E-002 2.654471667E-003 -2.893904746E-001 8.552552317E-004 1.366698183E-002 3.509724047E-003 4.322768450E-001
 2.325000048E+000 -6.398099899E+001 4.600000009E-002 9.700000286E-001 6.800000370E-002 2.832477679E-003 -3.086862564E-001 8.552552317E-004 1.370033436E-002 3.687733319E-003 4.169141948E-001
 2.339999914E+000 -6.394200134E+001 4.600000009E-002 9.700000286E-001 6.899999827E-002 2.832477679E-003 -3.085757792E-001 9.066847269E-004 1.455954276E-002 3.739164677E-003 4.217836261E-001