TITLE     = ""
VARIABLES = "V1"
"V2"
"V3"
"V4"
TEXT
CS=FRAME
C=BLACK 
S=LOCAL
X=13.8952323241,Y=5.79320545209
HU=FRAME
LS=1 AN=LEFT
BXM=20 LT=0.1 BXO=BLACK BXF=WHITE 
F=HELV
H=5 A=0
MFC=""
T="0                                                              10"
TEXT
CS=FRAME
C=BLACK 
S=LOCAL
X=45.0271784401,Y=61.6514555726
HU=FRAME
LS=1 AN=LEFT
BXM=20 LT=0.1 BXO=BLACK BXF=WHITE 
F=HELV-BOLD
H=3 A=0
MFC=""
T="u=25mV,  s=0.45mS/cm^2\\nu=38mV,  s=0.76mS/cm^2\\ndifference\\nweighing function"
ZONE T="ZONE 001"
 I=399, J=1, K=1,F=POINT
DT=(SINGLE SINGLE SINGLE SINGLE )
 5.000000075E-002 -6.333499908E+001 -6.308800125E+001 2.469978333E-001
 1.000000015E-001 -6.268700027E+001 -6.221300125E+001 4.739990234E-001
 1.500000060E-001 -6.205400085E+001 -6.137300110E+001 6.809997559E-001
 2.000000030E-001 -6.143799973E+001 -6.056700134E+001 8.709983826E-001
 2.500000000E-001 -6.083599854E+001 -5.979299927E+001 1.042999268E+000
 3.000000119E-001 -6.025000000E+001 -5.905099869E+001 1.199001312E+000
 3.499999940E-001 -5.967800140E+001 -5.833800125E+001 1.340000153E+000
 4.000000060E-001 -5.911999893E+001 -5.765399933E+001 1.465999603E+000
 4.499999881E-001 -5.857500076E+001 -5.699599838E+001 1.579002380E+000
 5.000000000E-001 -5.804399872E+001 -5.636500168E+001 1.678997040E+000
 5.500000119E-001 -5.752600098E+001 -5.575799942E+001 1.768001556E+000
 6.000000238E-001 -5.702000046E+001 -5.517399979E+001 1.846000671E+000
 6.499999762E-001 -5.652600098E+001 -5.461199951E+001 1.914001465E+000
 6.999999881E-001 -5.604399872E+001 -5.407099915E+001 1.972999573E+000
 7.500000000E-001 -5.557300186E+001 -5.354899979E+001 2.024002075E+000
 8.000000119E-001 -5.511199951E+001 -5.304399872E+001 2.068000793E+000
 8.500000238E-001 -5.466099930E+001 -5.255599976E+001 2.104999542E+000
 8.999999762E-001 -5.421900177E+001 -5.208200073E+001 2.137001038E+000
 9.499999881E-001 -5.378699875E+001 -5.162200165E+001 2.164997101E+000
 1.000000000E+000 -5.336199951E+001 -5.117300034E+001 2.188999176E+000
 1.049999952E+000 -5.294400024E+001 -5.073400116E+001 2.209999084E+000
 1.100000024E+000 -5.253400040E+001 -5.030199814E+001 2.232002258E+000
 1.149999976E+000 -5.212900162E+001 -4.987699890E+001 2.252002716E+000
 1.200000048E+000 -5.172800064E+001 -4.945600128E+001 2.271999359E+000
 1.250000000E+000 -5.133200073E+001 -4.903699875E+001 2.295001984E+000
 1.299999952E+000 -5.093799973E+001 -4.861800003E+001 2.319999695E+000
 1.350000024E+000 -5.054600143E+001 -4.819499969E+001 2.351001740E+000
 1.399999976E+000 -5.015399933E+001 -4.776699829E+001 2.387001038E+000
 1.450000048E+000 -4.976100159E+001 -4.733000183E+001 2.430999756E+000
 1.500000000E+000 -4.936500168E+001 -4.688100052E+001 2.484001160E+000
 1.549999952E+000 -4.896500015E+001 -4.641500092E+001 2.549999237E+000
 1.600000024E+000 -4.855699921E+001 -4.592699814E+001 2.630001068E+000
 1.649999976E+000 -4.814099884E+001 -4.541199875E+001 2.729000092E+000
 1.700000048E+000 -4.771200180E+001 -4.486100006E+001 2.851001740E+000
 1.750000000E+000 -4.726800156E+001 -4.426599884E+001 3.002002716E+000
 1.799999952E+000 -4.680500031E+001 -4.361399841E+001 3.191001892E+000
 1.850000024E+000 -4.631700134E+001 -4.288899994E+001 3.428001404E+000
 1.899999976E+000 -4.579999924E+001 -4.206999969E+001 3.729999542E+000
 1.950000048E+000 -4.524599838E+001 -4.112699890E+001 4.118999481E+000
 2.000000000E+000 -4.464400101E+001 -4.002099991E+001 4.623001099E+000
 2.049999952E+000 -4.398400116E+001 -3.869100189E+001 5.292999268E+000
 2.099999905E+000 -4.324900055E+001 -3.704999924E+001 6.199001312E+000
 2.150000095E+000 -4.241799927E+001 -3.496900177E+001 7.448997498E+000
 2.200000048E+000 -4.145999908E+001 -3.225199890E+001 9.208000183E+000
 2.250000000E+000 -4.033499908E+001 -2.862500000E+001 1.170999908E+001
 2.299999952E+000 -3.897999954E+001 -2.377700043E+001 1.520299911E+001
 2.349999905E+000 -3.730699921E+001 -1.762599945E+001 1.968099976E+001
 2.400000095E+000 -3.517800140E+001 -1.078600025E+001 2.439200211E+001
 2.450000048E+000 -3.238700104E+001 -4.473999977E+000 2.791300201E+001
 2.500000000E+000 -2.863400078E+001 2.269999981E-001 2.886100006E+001
 2.549999952E+000 -2.356900024E+001 2.871000051E+000 2.644000053E+001
 2.599999905E+000 -1.707399940E+001 3.500999928E+000 2.057499886E+001
 2.650000095E+000 -9.777000427E+000 2.351000071E+000 1.212800026E+001
 2.700000048E+000 -2.970999956E+000 -2.890000045E-001 2.681999922E+000
 2.750000000E+000 2.190000057E+000 -4.106999874E+000 -6.296999931E+000
 2.799999952E+000 5.231999874E+000 -8.770000458E+000 -1.400200081E+001
 2.849999905E+000 6.177999973E+000 -1.394499969E+001 -2.012299919E+001
 2.900000095E+000 5.236999989E+000 -1.931900024E+001 -2.455599976E+001
 2.950000048E+000 2.673000097E+000 -2.462199974E+001 -2.729500008E+001
 3.000000000E+000 -1.208999991E+000 -2.966099930E+001 -2.845199966E+001
 3.049999952E+000 -6.068999767E+000 -3.434099960E+001 -2.827199936E+001
 3.099999905E+000 -1.154699993E+001 -3.863299942E+001 -2.708599854E+001
 3.150000095E+000 -1.729800034E+001 -4.252099991E+001 -2.522299957E+001
 3.200000048E+000 -2.302000046E+001 -4.598199844E+001 -2.296199799E+001
 3.250000000E+000 -2.847699928E+001 -4.899300003E+001 -2.051600075E+001
 3.299999952E+000 -3.354600143E+001 -5.154800034E+001 -1.800199890E+001
 3.349999905E+000 -3.818799973E+001 -5.366199875E+001 -1.547399902E+001
 3.400000095E+000 -4.239199829E+001 -5.537400055E+001 -1.298200226E+001
 3.450000048E+000 -4.614099884E+001 -5.673300171E+001 -1.059200287E+001
 3.500000000E+000 -4.941299820E+001 -5.779100037E+001 -8.378002167E+000
 3.549999952E+000 -5.220100021E+001 -5.859400177E+001 -6.393001556E+000
 3.599999905E+000 -5.452500153E+001 -5.918399811E+001 -4.658996582E+000
 3.650000095E+000 -5.642499924E+001 -5.959600067E+001 -3.171001434E+000
 3.700000048E+000 -5.795399857E+001 -5.986100006E+001 -1.907001495E+000
 3.750000000E+000 -5.916600037E+001 -6.000199890E+001 -8.359985352E-001
 3.799999952E+000 -6.011100006E+001 -6.004100037E+001 6.999969482E-002
 3.849999905E+000 -6.083399963E+001 -5.999399948E+001 8.400001526E-001
 3.900000095E+000 -6.136899948E+001 -5.987699890E+001 1.492000580E+000
 3.950000048E+000 -6.174900055E+001 -5.970100021E+001 2.048000336E+000
 4.000000000E+000 -6.199900055E+001 -5.947800064E+001 2.520999908E+000
 4.050000191E+000 -6.213899994E+001 -5.921400070E+001 2.924999237E+000
 4.099999905E+000 -6.218799973E+001 -5.891899872E+001 3.269001007E+000
 4.150000095E+000 -6.215900040E+001 -5.859700012E+001 3.562000275E+000
 4.199999809E+000 -6.206499863E+001 -5.825600052E+001 3.808998108E+000
 4.250000000E+000 -6.191699982E+001 -5.789799881E+001 4.019001007E+000
 4.300000191E+000 -6.172299957E+001 -5.752899933E+001 4.194000244E+000
 4.349999905E+000 -6.149100113E+001 -5.715100098E+001 4.340000153E+000
 4.400000095E+000 -6.122600174E+001 -5.676699829E+001 4.459003448E+000
 4.449999809E+000 -6.093500137E+001 -5.638000107E+001 4.555000305E+000
 4.500000000E+000 -6.062200165E+001 -5.599200058E+001 4.630001068E+000
 4.550000191E+000 -6.029100037E+001 -5.560400009E+001 4.687000275E+000
 4.599999905E+000 -5.994499969E+001 -5.521900177E+001 4.725997925E+000
 4.650000095E+000 -5.958800125E+001 -5.483599854E+001 4.752002716E+000
 4.699999809E+000 -5.922200012E+001 -5.445800018E+001 4.763999939E+000
 4.750000000E+000 -5.884799957E+001 -5.408499908E+001 4.763000488E+000
 4.800000191E+000 -5.847100067E+001 -5.371799850E+001 4.753002167E+000
 4.849999905E+000 -5.808900070E+001 -5.335699844E+001 4.732002258E+000
 4.900000095E+000 -5.770600128E+001 -5.300299835E+001 4.703002930E+000
 4.949999809E+000 -5.732300186E+001 -5.265599823E+001 4.667003632E+000
 5.000000000E+000 -5.693999863E+001 -5.231499863E+001 4.625000000E+000
 5.050000191E+000 -5.655799866E+001 -5.198199844E+001 4.576000214E+000
 5.099999905E+000 -5.617800140E+001 -5.165599823E+001 4.522003174E+000
 5.150000095E+000 -5.580099869E+001 -5.133700180E+001 4.463996887E+000
 5.199999809E+000 -5.542800140E+001 -5.102500153E+001 4.402999878E+000
 5.250000000E+000 -5.505799866E+001 -5.072000122E+001 4.337997437E+000
 5.300000191E+000 -5.469300079E+001 -5.042100143E+001 4.271999359E+000
 5.349999905E+000 -5.433200073E+001 -5.012900162E+001 4.202999115E+000
 5.400000095E+000 -5.397499847E+001 -4.984199905E+001 4.132999420E+000
 5.449999809E+000 -5.362300110E+001 -4.956000137E+001 4.062999725E+000
 5.500000000E+000 -5.327600098E+001 -4.928400040E+001 3.992000580E+000
 5.550000191E+000 -5.293399811E+001 -4.901300049E+001 3.920997620E+000
 5.599999905E+000 -5.259700012E+001 -4.874599838E+001 3.851001740E+000
 5.650000095E+000 -5.226399994E+001 -4.848199844E+001 3.782001495E+000
 5.699999809E+000 -5.193600082E+001 -4.822200012E+001 3.714000702E+000
 5.750000000E+000 -5.161199951E+001 -4.796500015E+001 3.646999359E+000
 5.800000191E+000 -5.129199982E+001 -4.770999908E+001 3.582000732E+000
 5.849999905E+000 -5.097700119E+001 -4.745700073E+001 3.520000458E+000
 5.900000095E+000 -5.066500092E+001 -4.720500183E+001 3.459999084E+000
 5.949999809E+000 -5.035599899E+001 -4.695399857E+001 3.402000427E+000
 6.000000000E+000 -5.004999924E+001 -4.670299911E+001 3.347000122E+000
 6.050000191E+000 -4.974599838E+001 -4.645199966E+001 3.293998718E+000
 6.099999905E+000 -4.944499969E+001 -4.619900131E+001 3.245998383E+000
 6.150000095E+000 -4.914500046E+001 -4.594400024E+001 3.201000214E+000
 6.199999809E+000 -4.884600067E+001 -4.568700027E+001 3.159000397E+000
 6.250000000E+000 -4.854700089E+001 -4.542599869E+001 3.121002197E+000
 6.300000191E+000 -4.824700165E+001 -4.516099930E+001 3.086002350E+000
 6.349999905E+000 -4.794699860E+001 -4.489099884E+001 3.055999756E+000
 6.400000095E+000 -4.764500046E+001 -4.461399841E+001 3.031002045E+000
 6.449999809E+000 -4.734000015E+001 -4.432899857E+001 3.011001587E+000
 6.500000000E+000 -4.703099823E+001 -4.403599930E+001 2.994998932E+000
 6.550000191E+000 -4.671699905E+001 -4.373199844E+001 2.985000610E+000
 6.599999905E+000 -4.639799881E+001 -4.341600037E+001 2.981998444E+000
 6.650000095E+000 -4.607099915E+001 -4.308599854E+001 2.985000610E+000
 6.699999809E+000 -4.573600006E+001 -4.273899841E+001 2.997001648E+000
 6.750000000E+000 -4.538999939E+001 -4.237400055E+001 3.015998840E+000
 6.800000191E+000 -4.503099823E+001 -4.198600006E+001 3.044998169E+000
 6.849999905E+000 -4.465800095E+001 -4.157199860E+001 3.086002350E+000
 6.900000095E+000 -4.426699829E+001 -4.112799835E+001 3.138999939E+000
 6.949999809E+000 -4.385499954E+001 -4.064899826E+001 3.206001282E+000
 7.000000000E+000 -4.341899872E+001 -4.012699890E+001 3.291999817E+000
 7.050000191E+000 -4.295500183E+001 -3.955599976E+001 3.399002075E+000
 7.099999905E+000 -4.245600128E+001 -3.892599869E+001 3.530002594E+000
 7.150000095E+000 -4.191500092E+001 -3.822499847E+001 3.690002441E+000
 7.199999809E+000 -4.132600021E+001 -3.743899918E+001 3.887001038E+000
 7.250000000E+000 -4.067599869E+001 -3.654999924E+001 4.125999451E+000
 7.300000191E+000 -3.995399857E+001 -3.553599930E+001 4.417999268E+000
 7.349999905E+000 -3.914199829E+001 -3.437300110E+001 4.768997192E+000
 7.400000095E+000 -3.821900177E+001 -3.302899933E+001 5.190002441E+000
 7.449999809E+000 -3.715700150E+001 -3.147599983E+001 5.681001663E+000
 7.500000000E+000 -3.591999817E+001 -2.968600082E+001 6.233997345E+000
 7.550000191E+000 -3.446099854E+001 -2.765600014E+001 6.804998398E+000
 7.599999905E+000 -3.272399902E+001 -2.542000008E+001 7.303998947E+000
 7.650000095E+000 -3.064299965E+001 -2.308699989E+001 7.555999756E+000
 7.699999809E+000 -2.815600014E+001 -2.084799957E+001 7.308000565E+000
 7.750000000E+000 -2.524099922E+001 -1.895000076E+001 6.290998459E+000
 7.800000191E+000 -2.197500038E+001 -1.762700081E+001 4.347999573E+000
 7.849999905E+000 -1.860300064E+001 -1.703599930E+001 1.567001343E+000
 7.900000095E+000 -1.551000023E+001 -1.723600006E+001 -1.725999832E+000
 7.949999809E+000 -1.309399986E+001 -1.819199944E+001 -5.097999573E+000
 8.000000000E+000 -1.163399982E+001 -1.980800056E+001 -8.174000740E+000
 8.050000191E+000 -1.124800014E+001 -2.194599915E+001 -1.069799900E+001
 8.100000381E+000 -1.191300011E+001 -2.445800018E+001 -1.254500008E+001
 8.149999619E+000 -1.351900005E+001 -2.720599937E+001 -1.368699932E+001
 8.199999809E+000 -1.589999962E+001 -3.007299995E+001 -1.417300034E+001
 8.250000000E+000 -1.886300087E+001 -3.297299957E+001 -1.410999870E+001
 8.300000191E+000 -2.220800018E+001 -3.584500122E+001 -1.363700104E+001
 8.350000381E+000 -2.574900055E+001 -3.863800049E+001 -1.288899994E+001
 8.399999619E+000 -2.933399963E+001 -4.130500031E+001 -1.197100067E+001
 8.449999809E+000 -3.285900116E+001 -4.380199814E+001 -1.094299698E+001
 8.500000000E+000 -3.625500107E+001 -4.608800125E+001 -9.833000183E+000
 8.550000191E+000 -3.947399902E+001 -4.813399887E+001 -8.659999847E+000
 8.600000381E+000 -4.247800064E+001 -4.992300034E+001 -7.444999695E+000
 8.649999619E+000 -4.522999954E+001 -5.145500183E+001 -6.225002289E+000
 8.699999809E+000 -4.770000076E+001 -5.274100113E+001 -5.041000366E+000
 8.750000000E+000 -4.987300110E+001 -5.380300140E+001 -3.930000305E+000
 8.800000191E+000 -5.174900055E+001 -5.466299820E+001 -2.913997650E+000
 8.850000381E+000 -5.333900070E+001 -5.534500122E+001 -2.006000519E+000
 8.899999619E+000 -5.466799927E+001 -5.587300110E+001 -1.205001831E+000
 8.949999809E+000 -5.576200104E+001 -5.626800156E+001 -5.060005188E-001
 9.000000000E+000 -5.665100098E+001 -5.654899979E+001 1.020011902E-001
 9.050000191E+000 -5.736100006E+001 -5.673099899E+001 6.300010681E-001
 9.100000381E+000 -5.791600037E+001 -5.683000183E+001 1.085998535E+000
 9.149999619E+000 -5.833900070E+001 -5.685699844E+001 1.482002258E+000
 9.199999809E+000 -5.864799881E+001 -5.682400131E+001 1.823997498E+000
 9.250000000E+000 -5.885900116E+001 -5.673899841E+001 2.120002747E+000
 9.300000191E+000 -5.898600006E+001 -5.661100006E+001 2.375000000E+000
 9.350000381E+000 -5.904199982E+001 -5.644599915E+001 2.596000671E+000
 9.399999619E+000 -5.903499985E+001 -5.625099945E+001 2.784000397E+000
 9.449999809E+000 -5.897600174E+001 -5.603099823E+001 2.945003510E+000
 9.500000000E+000 -5.887099838E+001 -5.579000092E+001 3.080997467E+000
 9.550000191E+000 -5.872800064E+001 -5.553200150E+001 3.195999146E+000
 9.600000381E+000 -5.855199814E+001 -5.526100159E+001 3.290996552E+000
 9.649999619E+000 -5.834799957E+001 -5.497900009E+001 3.368999481E+000
 9.699999809E+000 -5.811999893E+001 -5.468899918E+001 3.430999756E+000
 9.750000000E+000 -5.787300110E+001 -5.439400101E+001 3.479000092E+000
 9.800000191E+000 -5.760900116E+001 -5.409500122E+001 3.513999939E+000
 9.850000381E+000 -5.733100128E+001 -5.379299927E+001 3.538002014E+000
 9.899999619E+000 -5.704299927E+001 -5.349000168E+001 3.552997589E+000
 9.949999809E+000 -5.674499893E+001 -5.318799973E+001 3.556999207E+000
 1.000000000E+001 -5.643999863E+001 -5.288700104E+001 3.552997589E+000
 1.005000019E+001 -5.612900162E+001 -5.258800125E+001 3.541000366E+000
 1.010000038E+001 -5.581499863E+001 -5.229199982E+001 3.522998810E+000
 1.014999962E+001 -5.549700165E+001 -5.199900055E+001 3.498001099E+000
 1.019999981E+001 -5.517800140E+001 -5.170899963E+001 3.469001770E+000
 1.025000000E+001 -5.485900116E+001 -5.142399979E+001 3.435001373E+000
 1.030000019E+001 -5.453900146E+001 -5.114199829E+001 3.397003174E+000
 1.035000038E+001 -5.422000122E+001 -5.086500168E+001 3.354999542E+000
 1.039999962E+001 -5.390200043E+001 -5.059199905E+001 3.310001373E+000
 1.044999981E+001 -5.358599854E+001 -5.032300186E+001 3.262996674E+000
 1.050000000E+001 -5.327199936E+001 -5.005899811E+001 3.213001251E+000
 1.055000019E+001 -5.295999908E+001 -4.979899979E+001 3.160999298E+000
 1.060000038E+001 -5.265100098E+001 -4.954299927E+001 3.108001709E+000
 1.064999962E+001 -5.234500122E+001 -4.929100037E+001 3.054000854E+000
 1.069999981E+001 -5.204199982E+001 -4.904199982E+001 3.000000000E+000
 1.075000000E+001 -5.174200058E+001 -4.879700089E+001 2.944999695E+000
 1.080000019E+001 -5.144499969E+001 -4.855400085E+001 2.890998840E+000
 1.085000038E+001 -5.115100098E+001 -4.831499863E+001 2.836002350E+000
 1.089999962E+001 -5.085900116E+001 -4.807799911E+001 2.781002045E+000
 1.094999981E+001 -5.056999969E+001 -4.784299850E+001 2.727001190E+000
 1.100000000E+001 -5.028400040E+001 -4.761000061E+001 2.673999786E+000
 1.105000019E+001 -5.000000000E+001 -4.737799835E+001 2.622001648E+000
 1.110000038E+001 -4.971799850E+001 -4.714699936E+001 2.570999146E+000
 1.114999962E+001 -4.943700027E+001 -4.691600037E+001 2.520999908E+000
 1.119999981E+001 -4.915800095E+001 -4.668600082E+001 2.472000122E+000
 1.125000000E+001 -4.888000107E+001 -4.645500183E+001 2.424999237E+000
 1.130000019E+001 -4.860200119E+001 -4.622299957E+001 2.379001617E+000
 1.135000038E+001 -4.832400131E+001 -4.599000168E+001 2.333999634E+000
 1.139999962E+001 -4.804600143E+001 -4.575400162E+001 2.291999817E+000
 1.144999981E+001 -4.776599884E+001 -4.551599884E+001 2.250000000E+000
 1.150000000E+001 -4.748500061E+001 -4.527500153E+001 2.209999084E+000
 1.155000019E+001 -4.720100021E+001 -4.502999878E+001 2.171001434E+000
 1.160000038E+001 -4.691500092E+001 -4.477899933E+001 2.136001587E+000
 1.164999962E+001 -4.662400055E+001 -4.452299881E+001 2.101001740E+000
 1.169999981E+001 -4.632799911E+001 -4.425999832E+001 2.068000793E+000
 1.175000000E+001 -4.602600098E+001 -4.399000168E+001 2.035999298E+000
 1.180000019E+001 -4.571599960E+001 -4.370999908E+001 2.006000519E+000
 1.185000038E+001 -4.539799881E+001 -4.341999817E+001 1.978000641E+000
 1.189999962E+001 -4.507099915E+001 -4.311800003E+001 1.952999115E+000
 1.194999981E+001 -4.473099899E+001 -4.280199814E+001 1.929000854E+000
 1.200000000E+001 -4.437699890E+001 -4.247100067E+001 1.905998230E+000
 1.205000019E+001 -4.400699997E+001 -4.212099838E+001 1.886001587E+000
 1.210000038E+001 -4.361800003E+001 -4.175000000E+001 1.868000031E+000
 1.214999962E+001 -4.320800018E+001 -4.135400009E+001 1.854000092E+000
 1.219999981E+001 -4.277099991E+001 -4.093099976E+001 1.840000153E+000
 1.225000000E+001 -4.230300140E+001 -4.047399902E+001 1.829002380E+000
 1.230000019E+001 -4.179899979E+001 -3.997800064E+001 1.820999146E+000
 1.235000038E+001 -4.125199890E+001 -3.943700027E+001 1.814998627E+000
 1.239999962E+001 -4.065299988E+001 -3.884199905E+001 1.811000824E+000
 1.244999981E+001 -3.999300003E+001 -3.818299866E+001 1.810001373E+000
 1.250000000E+001 -3.925600052E+001 -3.744900131E+001 1.806999207E+000
 1.255000019E+001 -3.842800140E+001 -3.662300110E+001 1.805000305E+000
 1.260000038E+001 -3.748699951E+001 -3.568899918E+001 1.798000336E+000
 1.264999962E+001 -3.640499878E+001 -3.462500000E+001 1.779998779E+000
 1.269999981E+001 -3.514899826E+001 -3.340700150E+001 1.741996765E+000
 1.275000000E+001 -3.367800140E+001 -3.201100159E+001 1.666999817E+000
 1.280000019E+001 -3.194199944E+001 -3.041600037E+001 1.525999069E+000
 1.285000038E+001 -2.989100075E+001 -2.861400032E+001 1.277000427E+000
 1.289999962E+001 -2.748900032E+001 -2.662400055E+001 8.649997711E-001
 1.294999981E+001 -2.475000000E+001 -2.452000046E+001 2.299995422E-001
 1.300000000E+001 -2.178800011E+001 -2.244199944E+001 -6.539993286E-001
 1.305000019E+001 -1.884700012E+001 -2.058699989E+001 -1.739999771E+000
 1.310000038E+001 -1.626499939E+001 -1.917000008E+001 -2.905000687E+000
 1.314999962E+001 -1.436100006E+001 -1.836499977E+001 -4.003999710E+000
 1.319999981E+001 -1.334700012E+001 -1.826600075E+001 -4.919000626E+000
 1.325000000E+001 -1.330000019E+001 -1.888100052E+001 -5.581000328E+000
 1.330000019E+001 -1.418500042E+001 -2.014800072E+001 -5.963000298E+000
 1.335000038E+001 -1.589000034E+001 -2.195899963E+001 -6.068999290E+000
 1.339999962E+001 -1.826000023E+001 -2.418300056E+001 -5.923000336E+000
 1.344999981E+001 -2.111599922E+001 -2.669000053E+001 -5.574001312E+000
 1.350000000E+001 -2.428000069E+001 -2.936499977E+001 -5.084999084E+000
 1.355000019E+001 -2.759399986E+001 -3.211999893E+001 -4.525999069E+000
 1.360000038E+001 -3.093600082E+001 -3.488600159E+001 -3.950000763E+000
 1.364999962E+001 -3.422100067E+001 -3.761199951E+001 -3.390998840E+000
 1.369999981E+001 -3.739099884E+001 -4.025000000E+001 -2.859001160E+000
 1.375000000E+001 -4.040100098E+001 -4.275299835E+001 -2.351997375E+000
 1.380000019E+001 -4.321099854E+001 -4.507699966E+001 -1.866001129E+000
 1.385000038E+001 -4.578300095E+001 -4.718600082E+001 -1.402999878E+000
 1.389999962E+001 -4.809199905E+001 -4.905400085E+001 -9.620018005E-001
 1.394999981E+001 -5.012099838E+001 -5.067399979E+001 -5.530014038E-001
 1.400000000E+001 -5.187300110E+001 -5.204999924E+001 -1.769981384E-001
 1.405000019E+001 -5.335900116E+001 -5.319699860E+001 1.620025635E-001
 1.410000038E+001 -5.460100174E+001 -5.413600159E+001 4.650001526E-001
 1.414999962E+001 -5.562599945E+001 -5.489099884E+001 7.350006104E-001
 1.419999981E+001 -5.645800018E+001 -5.548400116E+001 9.739990234E-001
 1.425000000E+001 -5.712300110E+001 -5.593700027E+001 1.186000824E+000
 1.430000019E+001 -5.764400101E+001 -5.626900101E+001 1.375000000E+000
 1.435000038E+001 -5.804000092E+001 -5.649700165E+001 1.542999268E+000
 1.439999962E+001 -5.832799911E+001 -5.663499832E+001 1.693000793E+000
 1.444999981E+001 -5.852299881E+001 -5.669699860E+001 1.826000214E+000
 1.450000000E+001 -5.863899994E+001 -5.669499969E+001 1.944000244E+000
 1.455000019E+001 -5.868700027E+001 -5.663700104E+001 2.049999237E+000
 1.460000038E+001 -5.867499924E+001 -5.653300095E+001 2.141998291E+000
 1.464999962E+001 -5.861299896E+001 -5.638899994E+001 2.223999023E+000
 1.469999981E+001 -5.850799942E+001 -5.621200180E+001 2.295997620E+000
 1.475000000E+001 -5.836600113E+001 -5.600799942E+001 2.358001709E+000
 1.480000019E+001 -5.819300079E+001 -5.578099823E+001 2.412002563E+000
 1.485000038E+001 -5.799200058E+001 -5.553599930E+001 2.456001282E+000
 1.489999962E+001 -5.776900101E+001 -5.527500153E+001 2.493999481E+000
 1.494999981E+001 -5.752700043E+001 -5.500299835E+001 2.524002075E+000
 1.500000000E+001 -5.726900101E+001 -5.472100067E+001 2.548000336E+000
 1.505000019E+001 -5.699700165E+001 -5.443299866E+001 2.564002991E+000
 1.510000038E+001 -5.671500015E+001 -5.413999939E+001 2.575000763E+000
 1.514999962E+001 -5.642399979E+001 -5.384299850E+001 2.581001282E+000
 1.519999981E+001 -5.612599945E+001 -5.354499817E+001 2.581001282E+000
 1.525000000E+001 -5.582300186E+001 -5.324599838E+001 2.577003479E+000
 1.530000019E+001 -5.551599884E+001 -5.294900131E+001 2.566997528E+000
 1.535000038E+001 -5.520500183E+001 -5.265200043E+001 2.553001404E+000
 1.539999962E+001 -5.489400101E+001 -5.235800171E+001 2.535999298E+000
 1.544999981E+001 -5.458100128E+001 -5.206700134E+001 2.513999939E+000
 1.550000000E+001 -5.426800156E+001 -5.177899933E+001 2.489002228E+000
 1.555000019E+001 -5.395600128E+001 -5.149399948E+001 2.462001801E+000
 1.560000038E+001 -5.364500046E+001 -5.121300125E+001 2.431999207E+000
 1.564999962E+001 -5.333599854E+001 -5.093700027E+001 2.398998260E+000
 1.569999981E+001 -5.302899933E+001 -5.066500092E+001 2.363998413E+000
 1.575000000E+001 -5.272399902E+001 -5.039599991E+001 2.327999115E+000
 1.580000019E+001 -5.242100143E+001 -5.013199997E+001 2.289001465E+000
 1.585000038E+001 -5.212099838E+001 -4.987200165E+001 2.248996735E+000
 1.589999962E+001 -5.182400131E+001 -4.961600113E+001 2.208000183E+000
 1.594999981E+001 -5.152899933E+001 -4.936399841E+001 2.165000916E+000
 1.600000000E+001 -5.123699951E+001 -4.911500168E+001 2.121997833E+000
 1.604999924E+001 -5.094800186E+001 -4.886999893E+001 2.078002930E+000
 1.610000038E+001 -5.066199875E+001 -4.862799835E+001 2.034000397E+000
 1.614999962E+001 -5.037699890E+001 -4.838800049E+001 1.988998413E+000
 1.620000076E+001 -5.009500122E+001 -4.815100098E+001 1.944000244E+000
 1.625000000E+001 -4.981499863E+001 -4.791600037E+001 1.898998260E+000
 1.629999924E+001 -4.953699875E+001 -4.768299866E+001 1.854000092E+000
 1.635000038E+001 -4.925999832E+001 -4.745100021E+001 1.808998108E+000
 1.639999962E+001 -4.898400116E+001 -4.722000122E+001 1.763999939E+000
 1.645000076E+001 -4.870899963E+001 -4.699000168E+001 1.718997955E+000
 1.650000000E+001 -4.843299866E+001 -4.675999832E+001 1.673000336E+000
 1.654999924E+001 -4.815800095E+001 -4.652999878E+001 1.628002167E+000
 1.660000038E+001 -4.788100052E+001 -4.629800034E+001 1.583000183E+000
 1.664999962E+001 -4.760300064E+001 -4.606600189E+001 1.536998749E+000
 1.670000076E+001 -4.732300186E+001 -4.583100128E+001 1.492000580E+000
 1.675000000E+001 -4.704000092E+001 -4.559400177E+001 1.445999146E+000
 1.679999924E+001 -4.675400162E+001 -4.535400009E+001 1.400001526E+000
 1.685000038E+001 -4.646300125E+001 -4.511000061E+001 1.353000641E+000
 1.689999962E+001 -4.616600037E+001 -4.486100006E+001 1.305000305E+000
 1.695000076E+001 -4.586299896E+001 -4.460699844E+001 1.256000519E+000
 1.700000000E+001 -4.555199814E+001 -4.434600067E+001 1.205997467E+000
 1.704999924E+001 -4.523199844E+001 -4.407799911E+001 1.153999329E+000
 1.710000038E+001 -4.490100098E+001 -4.380099869E+001 1.100002289E+000
 1.714999962E+001 -4.455799866E+001 -4.351399994E+001 1.043998718E+000
 1.720000076E+001 -4.420000076E+001 -4.321500015E+001 9.850006104E-001
 1.725000000E+001 -4.382400131E+001 -4.290399933E+001 9.200019836E-001
 1.729999924E+001 -4.342900085E+001 -4.257600021E+001 8.530006409E-001
 1.735000038E+001 -4.300999832E+001 -4.223199844E+001 7.779998779E-001
 1.739999962E+001 -4.256299973E+001 -4.186600113E+001 6.969985962E-001
 1.745000076E+001 -4.208399963E+001 -4.147800064E+001 6.059989929E-001
 1.750000000E+001 -4.156600189E+001 -4.106200027E+001 5.040016174E-001
 1.754999924E+001 -4.100299835E+001 -4.061399841E+001 3.889999390E-001
 1.760000038E+001 -4.038399887E+001 -4.012900162E+001 2.549972534E-001
 1.764999962E+001 -3.969900131E+001 -3.959999847E+001 9.900283813E-002
 1.770000076E+001 -3.893299866E+001 -3.902000046E+001 -8.700180054E-002
 1.775000000E+001 -3.806800079E+001 -3.837799835E+001 -3.099975586E-001
 1.779999924E+001 -3.708100128E+001 -3.766299820E+001 -5.819969177E-001
 1.785000038E+001 -3.594400024E+001 -3.686199951E+001 -9.179992676E-001
 1.789999962E+001 -3.461899948E+001 -3.595600128E+001 -1.337001801E+000
 1.795000076E+001 -3.306399918E+001 -3.492499924E+001 -1.861000061E+000
 1.800000000E+001 -3.122900009E+001 -3.374599838E+001 -2.516998291E+000
 1.804999924E+001 -2.906599998E+001 -3.239400101E+001 -3.328001022E+000
 1.810000038E+001 -2.655500031E+001 -3.084600067E+001 -4.291000366E+000
 1.814999962E+001 -2.373900032E+001 -2.908799934E+001 -5.348999023E+000
 1.820000076E+001 -2.077799988E+001 -2.713100052E+001 -6.353000641E+000
 1.825000000E+001 -1.795400047E+001 -2.503300095E+001 -7.079000473E+000
 1.829999924E+001 -1.560900021E+001 -2.291600037E+001 -7.307000160E+000
 1.835000038E+001 -1.402499962E+001 -2.096999931E+001 -6.944999695E+000
 1.839999962E+001 -1.336699963E+001 -1.941200066E+001 -6.045001030E+000
 1.845000076E+001 -1.366600037E+001 -1.843300056E+001 -4.767000198E+000
 1.850000000E+001 -1.485799980E+001 -1.814900017E+001 -3.291000366E+000
 1.854999924E+001 -1.681200027E+001 -1.859000015E+001 -1.777999878E+000
 1.860000038E+001 -1.936300087E+001 -1.970800018E+001 -3.449993134E-001
 1.864999962E+001 -2.233300018E+001 -2.140299988E+001 9.300003052E-001
 1.870000076E+001 -2.554999924E+001 -2.354700089E+001 2.002998352E+000
 1.875000000E+001 -2.886800003E+001 -2.600499916E+001 2.863000870E+000
 1.879999924E+001 -3.218099976E+001 -2.865900040E+001 3.521999359E+000
 1.885000038E+001 -3.541500092E+001 -3.141099930E+001 4.004001617E+000
 1.889999962E+001 -3.852000046E+001 -3.418899918E+001 4.331001282E+000
 1.895000076E+001 -4.145199966E+001 -3.693799973E+001 4.513999939E+000
 1.900000000E+001 -4.417100143E+001 -3.961000061E+001 4.561000824E+000
 1.904999924E+001 -4.664400101E+001 -4.215599823E+001 4.488002777E+000
 1.910000038E+001 -4.884700012E+001 -4.453400040E+001 4.312999725E+000
 1.914999962E+001 -5.077099991E+001 -4.670199966E+001 4.069000244E+000
 1.920000076E+001 -5.242100143E+001 -4.863399887E+001 3.787002563E+000
 1.925000000E+001 -5.381399918E+001 -5.031700134E+001 3.496997833E+000
 1.929999924E+001 -5.497299957E+001 -5.175400162E+001 3.218997955E+000
 1.935000038E+001 -5.592399979E+001 -5.295600128E+001 2.967998505E+000
 1.939999962E+001 -5.669300079E+001 -5.394499969E+001 2.748001099E+000
 1.945000076E+001 -5.730300140E+001 -5.474300003E+001 2.560001373E+000
 1.950000000E+001 -5.777600098E+001 -5.537400055E+001 2.402000427E+000
 1.954999924E+001 -5.813199997E+001 -5.585900116E+001 2.272998810E+000
 1.960000038E+001 -5.838499832E+001 -5.621799850E+001 2.166999817E+000
 1.964999962E+001 -5.855099869E+001 -5.646900177E+001 2.081996918E+000
 1.970000076E+001 -5.864099884E+001 -5.662799835E+001 2.013000488E+000
 1.975000000E+001 -5.866699982E+001 -5.670700073E+001 1.959999084E+000
 1.979999924E+001 -5.863700104E+001 -5.671900177E+001 1.917999268E+000
 1.985000038E+001 -5.855899811E+001 -5.667300034E+001 1.885997772E+000
 1.989999962E+001 -5.843999863E+001 -5.657899857E+001 1.861000061E+000
 1.995000076E+001 -5.828699875E+001 -5.644400024E+001 1.842998505E+000
