TITLE     = ""
VARIABLES = "V1"
"V2"
"V3"
"V4"
TEXT
CS=FRAME
C=BLACK 
S=LOCAL
X=26.2517264011,Y=6.79851286128
HU=FRAME
LS=1 AN=LEFT
BXM=20 LT=0.1 BXO=BLACK BXF=WHITE 
F=HELV
H=6 A=0
MFC=""
T="0                                   10"
ZONE T="ZONE 001"
 I=1000, J=1, K=1,F=POINT
DT=(SINGLE SINGLE SINGLE SINGLE )
 5.000000075E-002 -5.884000015E+001 -5.851200104E+001 3.279991150E-001
 1.000000015E-001 -5.770199966E+001 -5.707600021E+001 6.259994507E-001
 1.500000060E-001 -5.658200073E+001 -5.568500137E+001 8.969993591E-001
 2.000000030E-001 -5.547600174E+001 -5.433300018E+001 1.143001556E+000
 2.500000000E-001 -5.437900162E+001 -5.301100159E+001 1.368000031E+000
 3.000000119E-001 -5.328499985E+001 -5.170899963E+001 1.576000214E+000
 3.499999940E-001 -5.218700027E+001 -5.041600037E+001 1.770999908E+000
 4.000000060E-001 -5.107600021E+001 -4.911299896E+001 1.963001251E+000
 4.499999881E-001 -4.993899918E+001 -4.778200150E+001 2.156997681E+000
 5.000000000E-001 -4.876100159E+001 -4.639400101E+001 2.367000580E+000
 5.500000119E-001 -4.752099991E+001 -4.491400146E+001 2.606998444E+000
 6.000000238E-001 -4.619200134E+001 -4.329299927E+001 2.899002075E+000
 6.499999762E-001 -4.473699951E+001 -4.146400070E+001 3.272998810E+000
 6.999999881E-001 -4.310400009E+001 -3.933200073E+001 3.771999359E+000
 7.500000000E-001 -4.122399902E+001 -3.676200104E+001 4.461997986E+000
 8.000000119E-001 -3.899499893E+001 -3.354800034E+001 5.446998596E+000
 8.500000238E-001 -3.626399994E+001 -2.937800026E+001 6.885999680E+000
 8.999999762E-001 -3.280300140E+001 -2.376600075E+001 9.037000656E+000
 9.499999881E-001 -2.825699997E+001 -1.596599960E+001 1.229100037E+001
 1.000000000E+000 -2.206900024E+001 -4.959000111E+000 1.711000061E+001
 1.049999952E+000 -1.339099979E+001 1.007900047E+001 2.347000122E+001
 1.100000024E+000 -1.121000051E+000 2.760400009E+001 2.872500038E+001
 1.149999976E+000 1.530599976E+001 4.049700165E+001 2.519100189E+001
 1.200000048E+000 3.297499847E+001 4.279499817E+001 9.819999695E+000
 1.250000000E+000 4.323600006E+001 4.188700104E+001 -1.348999023E+000
 1.299999952E+000 4.328599930E+001 4.139699936E+001 -1.888999939E+000
 1.350000024E+000 4.260499954E+001 4.001399994E+001 -2.590999603E+000
 1.399999976E+000 4.163600159E+001 3.886399841E+001 -2.772003174E+000
 1.450000048E+000 4.037200165E+001 3.709600067E+001 -3.276000977E+000
 1.500000000E+000 3.892100143E+001 3.551599884E+001 -3.405002594E+000
 1.549999952E+000 3.725400162E+001 3.346099854E+001 -3.793003082E+000
 1.600000024E+000 3.544300079E+001 3.154999924E+001 -3.893001556E+000
 1.649999976E+000 3.346599960E+001 2.929999924E+001 -4.166000366E+000
 1.700000048E+000 3.138100052E+001 2.713699913E+001 -4.244001389E+000
 1.750000000E+000 2.917700005E+001 2.476600075E+001 -4.410999298E+000
 1.799999952E+000 2.689699936E+001 2.243300056E+001 -4.463998795E+000
 1.850000024E+000 2.454100037E+001 1.999399948E+001 -4.547000885E+000
 1.899999976E+000 2.213699913E+001 1.756599998E+001 -4.570999146E+000
 1.950000048E+000 1.969099998E+001 1.509599972E+001 -4.595000267E+000
 2.000000000E+000 1.722200012E+001 1.263199997E+001 -4.590000153E+000
 2.049999952E+000 1.473799992E+001 1.016100025E+001 -4.576999664E+000
 2.099999905E+000 1.224899960E+001 7.699999809E+000 -4.548999786E+000
 2.150000095E+000 9.762999535E+000 5.250000000E+000 -4.512999535E+000
 2.200000048E+000 7.284999847E+000 2.816999912E+000 -4.467999935E+000
 2.250000000E+000 4.822000027E+000 4.029999971E-001 -4.419000149E+000
 2.299999952E+000 2.377000093E+000 -1.988999963E+000 -4.366000175E+000
 2.349999905E+000 -4.800000042E-002 -4.359000206E+000 -4.311000347E+000
 2.400000095E+000 -2.450999975E+000 -6.706999779E+000 -4.255999565E+000
 2.450000048E+000 -4.831999779E+000 -9.032999992E+000 -4.201000214E+000
 2.500000000E+000 -7.190000057E+000 -1.133899975E+001 -4.148999691E+000
 2.549999952E+000 -9.527000427E+000 -1.362800026E+001 -4.100999832E+000
 2.599999905E+000 -1.184399986E+001 -1.590299988E+001 -4.059000015E+000
 2.650000095E+000 -1.414599991E+001 -1.817099953E+001 -4.024999619E+000
 2.700000048E+000 -1.643600082E+001 -2.043799973E+001 -4.001998901E+000
 2.750000000E+000 -1.871999931E+001 -2.271400070E+001 -3.994001389E+000
 2.799999952E+000 -2.100799942E+001 -2.501199913E+001 -4.003999710E+000
 2.849999905E+000 -2.330900002E+001 -2.734900093E+001 -4.040000916E+000
 2.900000095E+000 -2.563899994E+001 -2.974600029E+001 -4.107000351E+000
 2.950000048E+000 -2.801600075E+001 -3.223099899E+001 -4.214998245E+000
 3.000000000E+000 -3.046299934E+001 -3.483499908E+001 -4.371999741E+000
 3.049999952E+000 -3.301300049E+001 -3.759799957E+001 -4.584999084E+000
 3.099999905E+000 -3.570000076E+001 -4.056499863E+001 -4.864997864E+000
 3.150000095E+000 -3.856999969E+001 -4.377999878E+001 -5.209999084E+000
 3.200000048E+000 -4.167100143E+001 -4.727799988E+001 -5.606998444E+000
 3.250000000E+000 -4.505099869E+001 -5.106100082E+001 -6.010002136E+000
 3.299999952E+000 -4.874399948E+001 -5.507099915E+001 -6.326999664E+000
 3.349999905E+000 -5.274000168E+001 -5.914300156E+001 -6.402999878E+000
 3.400000095E+000 -5.694900131E+001 -6.299900055E+001 -6.049999237E+000
 3.450000048E+000 -6.115499878E+001 -6.630400085E+001 -5.149002075E+000
 3.500000000E+000 -6.502300262E+001 -6.881400299E+001 -3.791000366E+000
 3.549999952E+000 -6.820099640E+001 -7.049700165E+001 -2.296005249E+000
 3.599999905E+000 -7.050000000E+001 -7.150499725E+001 -1.004997253E+000
 3.650000095E+000 -7.197299957E+001 -7.204900360E+001 -7.600402832E-002
 3.700000048E+000 -7.282700348E+001 -7.230799866E+001 5.190048218E-001
 3.750000000E+000 -7.327999878E+001 -7.240200043E+001 8.779983521E-001
 3.799999952E+000 -7.349500275E+001 -7.240399933E+001 1.091003418E+000
 3.849999905E+000 -7.357700348E+001 -7.235500336E+001 1.222000122E+000
 3.900000095E+000 -7.358499908E+001 -7.227600098E+001 1.308998108E+000
 3.950000048E+000 -7.355000305E+001 -7.218099976E+001 1.369003296E+000
 4.000000000E+000 -7.349199677E+001 -7.207599640E+001 1.416000366E+000
 4.050000191E+000 -7.341899872E+001 -7.196299744E+001 1.456001282E+000
 4.099999905E+000 -7.333699799E+001 -7.184600067E+001 1.490997314E+000
 4.150000095E+000 -7.325000000E+001 -7.172499847E+001 1.525001526E+000
 4.199999809E+000 -7.315799713E+001 -7.160099792E+001 1.556999207E+000
 4.250000000E+000 -7.306199646E+001 -7.147399902E+001 1.587997437E+000
 4.300000191E+000 -7.296399689E+001 -7.134500122E+001 1.618995667E+000
 4.349999905E+000 -7.286299896E+001 -7.121299744E+001 1.650001526E+000
 4.400000095E+000 -7.276000214E+001 -7.107900238E+001 1.680999756E+000
 4.449999809E+000 -7.265499878E+001 -7.094300079E+001 1.711997986E+000
 4.500000000E+000 -7.254699707E+001 -7.080500031E+001 1.741996765E+000
 4.550000191E+000 -7.243800354E+001 -7.066400146E+001 1.774002075E+000
 4.599999905E+000 -7.232599640E+001 -7.052200317E+001 1.803993225E+000
 4.650000095E+000 -7.221199799E+001 -7.037699890E+001 1.834999084E+000
 4.699999809E+000 -7.209600067E+001 -7.023100281E+001 1.864997864E+000
 4.750000000E+000 -7.197799683E+001 -7.008200073E+001 1.895996094E+000
 4.800000191E+000 -7.185800171E+001 -6.993099976E+001 1.927001953E+000
 4.849999905E+000 -7.173500061E+001 -6.977799988E+001 1.957000732E+000
 4.900000095E+000 -7.161100006E+001 -6.962300110E+001 1.987998962E+000
 4.949999809E+000 -7.148400116E+001 -6.946600342E+001 2.017997742E+000
 5.000000000E+000 -7.135500336E+001 -6.930699921E+001 2.048004150E+000
 5.050000191E+000 -7.122399902E+001 -6.914600372E+001 2.077995300E+000
 5.099999905E+000 -7.109100342E+001 -6.898400116E+001 2.107002258E+000
 5.150000095E+000 -7.095600128E+001 -6.881900024E+001 2.137001038E+000
 5.199999809E+000 -7.081800079E+001 -6.865200043E+001 2.166000366E+000
 5.250000000E+000 -7.067900085E+001 -6.848400116E+001 2.194999695E+000
 5.300000191E+000 -7.053700256E+001 -6.831400299E+001 2.222999573E+000
 5.349999905E+000 -7.039299774E+001 -6.814199829E+001 2.250999451E+000
 5.400000095E+000 -7.024700165E+001 -6.796900177E+001 2.277999878E+000
 5.449999809E+000 -7.009899902E+001 -6.779299927E+001 2.305999756E+000
 5.500000000E+000 -6.994899750E+001 -6.761599731E+001 2.333000183E+000
 5.550000191E+000 -6.979699707E+001 -6.743800354E+001 2.358993530E+000
 5.599999905E+000 -6.964199829E+001 -6.725800323E+001 2.383995056E+000
 5.650000095E+000 -6.948600006E+001 -6.707700348E+001 2.408996582E+000
 5.699999809E+000 -6.932700348E+001 -6.689399719E+001 2.433006287E+000
 5.750000000E+000 -6.916699982E+001 -6.670999908E+001 2.457000732E+000
 5.800000191E+000 -6.900399780E+001 -6.652400208E+001 2.479995728E+000
 5.849999905E+000 -6.883999634E+001 -6.633699799E+001 2.502998352E+000
 5.900000095E+000 -6.867400360E+001 -6.614900208E+001 2.525001526E+000
 5.949999809E+000 -6.850499725E+001 -6.595999908E+001 2.544998169E+000
 6.000000000E+000 -6.833499908E+001 -6.576999664E+001 2.565002441E+000
 6.050000191E+000 -6.816300201E+001 -6.557800293E+001 2.584999084E+000
 6.099999905E+000 -6.798899841E+001 -6.538600159E+001 2.602996826E+000
 6.150000095E+000 -6.781300354E+001 -6.519300079E+001 2.620002747E+000
 6.199999809E+000 -6.763600159E+001 -6.499900055E+001 2.637001038E+000
 6.250000000E+000 -6.745700073E+001 -6.480400085E+001 2.652999878E+000
 6.300000191E+000 -6.727600098E+001 -6.460900116E+001 2.666999817E+000
 6.349999905E+000 -6.709300232E+001 -6.441200256E+001 2.680999756E+000
 6.400000095E+000 -6.690899658E+001 -6.421600342E+001 2.692993164E+000
 6.449999809E+000 -6.672399902E+001 -6.401799774E+001 2.706001282E+000
 6.500000000E+000 -6.653600311E+001 -6.382099915E+001 2.715003967E+000
 6.550000191E+000 -6.634799957E+001 -6.362300110E+001 2.724998474E+000
 6.599999905E+000 -6.615799713E+001 -6.342399979E+001 2.733997345E+000
 6.650000095E+000 -6.596600342E+001 -6.322600174E+001 2.740001678E+000
 6.699999809E+000 -6.577400208E+001 -6.302700043E+001 2.747001648E+000
 6.750000000E+000 -6.558000183E+001 -6.282799911E+001 2.752002716E+000
 6.800000191E+000 -6.538500214E+001 -6.262900162E+001 2.756000519E+000
 6.849999905E+000 -6.518900299E+001 -6.243000031E+001 2.759002686E+000
 6.900000095E+000 -6.499099731E+001 -6.223099899E+001 2.759998322E+000
 6.949999809E+000 -6.479299927E+001 -6.203200150E+001 2.760997772E+000
 7.000000000E+000 -6.459400177E+001 -6.183300018E+001 2.761001587E+000
 7.050000191E+000 -6.439399719E+001 -6.163499832E+001 2.758998871E+000
 7.099999905E+000 -6.419300079E+001 -6.143700027E+001 2.756000519E+000
 7.150000095E+000 -6.399100113E+001 -6.124000168E+001 2.750999451E+000
 7.199999809E+000 -6.378900146E+001 -6.104199982E+001 2.747001648E+000
 7.250000000E+000 -6.358499908E+001 -6.084600067E+001 2.738998413E+000
 7.300000191E+000 -6.338199997E+001 -6.064899826E+001 2.733001709E+000
 7.349999905E+000 -6.317800140E+001 -6.045399857E+001 2.724002838E+000
 7.400000095E+000 -6.297299957E+001 -6.025899887E+001 2.714000702E+000
 7.449999809E+000 -6.276800156E+001 -6.006499863E+001 2.703002930E+000
 7.500000000E+000 -6.256299973E+001 -5.987099838E+001 2.692001343E+000
 7.550000191E+000 -6.235699844E+001 -5.967800140E+001 2.678997040E+000
 7.599999905E+000 -6.215100098E+001 -5.948600006E+001 2.665000916E+000
 7.650000095E+000 -6.194499969E+001 -5.929499817E+001 2.650001526E+000
 7.699999809E+000 -6.173899841E+001 -5.910400009E+001 2.634998322E+000
 7.750000000E+000 -6.153300095E+001 -5.891500092E+001 2.618000031E+000
 7.800000191E+000 -6.132699966E+001 -5.872600174E+001 2.600997925E+000
 7.849999905E+000 -6.112099838E+001 -5.853799820E+001 2.583000183E+000
 7.900000095E+000 -6.091500092E+001 -5.835100174E+001 2.563999176E+000
 7.949999809E+000 -6.070899963E+001 -5.816600037E+001 2.542999268E+000
 8.000000000E+000 -6.050400162E+001 -5.798099899E+001 2.523002625E+000
 8.050000191E+000 -6.029800034E+001 -5.779600143E+001 2.501998901E+000
 8.100000381E+000 -6.009299850E+001 -5.761299896E+001 2.479999542E+000
 8.149999619E+000 -5.988899994E+001 -5.743099976E+001 2.458000183E+000
 8.199999809E+000 -5.968399811E+001 -5.725000000E+001 2.433998108E+000
 8.250000000E+000 -5.947999954E+001 -5.706999969E+001 2.409999847E+000
 8.300000191E+000 -5.927700043E+001 -5.688999939E+001 2.387001038E+000
 8.350000381E+000 -5.907400131E+001 -5.671099854E+001 2.363002777E+000
 8.399999619E+000 -5.887099838E+001 -5.653400040E+001 2.336997986E+000
 8.449999809E+000 -5.866899872E+001 -5.635699844E+001 2.312000275E+000
 8.500000000E+000 -5.846699905E+001 -5.618099976E+001 2.285999298E+000
 8.550000191E+000 -5.826499939E+001 -5.600500107E+001 2.259998322E+000
 8.600000381E+000 -5.806399918E+001 -5.583100128E+001 2.232997894E+000
 8.649999619E+000 -5.786399841E+001 -5.565700150E+001 2.206996918E+000
 8.699999809E+000 -5.766400146E+001 -5.548300171E+001 2.180999756E+000
 8.750000000E+000 -5.746400070E+001 -5.531000137E+001 2.153999329E+000
 8.800000191E+000 -5.726499939E+001 -5.513800049E+001 2.126998901E+000
 8.850000381E+000 -5.706600189E+001 -5.496599960E+001 2.100002289E+000
 8.899999619E+000 -5.686700058E+001 -5.479499817E+001 2.072002411E+000
 8.949999809E+000 -5.666899872E+001 -5.462300110E+001 2.045997620E+000
 9.000000000E+000 -5.647100067E+001 -5.445199966E+001 2.019001007E+000
 9.050000191E+000 -5.627299881E+001 -5.428099823E+001 1.992000580E+000
 9.100000381E+000 -5.607400131E+001 -5.411000061E+001 1.964000702E+000
 9.149999619E+000 -5.587599945E+001 -5.393899918E+001 1.937000275E+000
 9.199999809E+000 -5.567800140E+001 -5.376800156E+001 1.909999847E+000
 9.250000000E+000 -5.547999954E+001 -5.359600067E+001 1.883998871E+000
 9.300000191E+000 -5.528099823E+001 -5.342399979E+001 1.856998444E+000
 9.350000381E+000 -5.508100128E+001 -5.325199890E+001 1.829002380E+000
 9.399999619E+000 -5.488100052E+001 -5.307799911E+001 1.803001404E+000
 9.449999809E+000 -5.468000031E+001 -5.290399933E+001 1.776000977E+000
 9.500000000E+000 -5.447900009E+001 -5.272800064E+001 1.750999451E+000
 9.550000191E+000 -5.427600098E+001 -5.255199814E+001 1.724002838E+000
 9.600000381E+000 -5.407099915E+001 -5.237400055E+001 1.696998596E+000
 9.649999619E+000 -5.386500168E+001 -5.219400024E+001 1.671001434E+000
 9.699999809E+000 -5.365800095E+001 -5.201200104E+001 1.645999908E+000
 9.750000000E+000 -5.344800186E+001 -5.182799911E+001 1.620002747E+000
 9.800000191E+000 -5.323500061E+001 -5.164199829E+001 1.593002319E+000
 9.850000381E+000 -5.302000046E+001 -5.145199966E+001 1.568000793E+000
 9.899999619E+000 -5.280199814E+001 -5.125999832E+001 1.541999817E+000
 9.949999809E+000 -5.258000183E+001 -5.106399918E+001 1.516002655E+000
 1.000000000E+001 -5.235400009E+001 -5.086399841E+001 1.490001678E+000
 1.005000019E+001 -5.212300110E+001 -5.065900040E+001 1.464000702E+000
 1.010000038E+001 -5.188700104E+001 -5.045000076E+001 1.437000275E+000
 1.014999962E+001 -5.164599991E+001 -5.023400116E+001 1.411998749E+000
 1.019999981E+001 -5.139699936E+001 -5.001300049E+001 1.383998871E+000
 1.025000000E+001 -5.114199829E+001 -4.978400040E+001 1.357997894E+000
 1.030000019E+001 -5.087799835E+001 -4.954800034E+001 1.329998016E+000
 1.035000038E+001 -5.060400009E+001 -4.930199814E+001 1.302001953E+000
 1.039999962E+001 -5.031999969E+001 -4.904600143E+001 1.273998260E+000
 1.044999981E+001 -5.002299881E+001 -4.877899933E+001 1.243999481E+000
 1.050000000E+001 -4.971200180E+001 -4.849900055E+001 1.213001251E+000
 1.055000019E+001 -4.938600159E+001 -4.820399857E+001 1.182003021E+000
 1.060000038E+001 -4.904100037E+001 -4.789300156E+001 1.147998810E+000
 1.064999962E+001 -4.867499924E+001 -4.756200027E+001 1.112998962E+000
 1.069999981E+001 -4.828400040E+001 -4.720999908E+001 1.074001312E+000
 1.075000000E+001 -4.786600113E+001 -4.683100128E+001 1.034999847E+000
 1.080000019E+001 -4.741400146E+001 -4.642399979E+001 9.900016785E-001
 1.085000038E+001 -4.692399979E+001 -4.598199844E+001 9.420013428E-001
 1.089999962E+001 -4.638800049E+001 -4.549900055E+001 8.889999390E-001
 1.094999981E+001 -4.579800034E+001 -4.496900177E+001 8.289985657E-001
 1.100000000E+001 -4.514199829E+001 -4.438199997E+001 7.599983215E-001
 1.105000019E+001 -4.440599823E+001 -4.372700119E+001 6.789970398E-001
 1.110000038E+001 -4.357300186E+001 -4.298899841E+001 5.840034485E-001
 1.114999962E+001 -4.261999893E+001 -4.215100098E+001 4.689979553E-001
 1.119999981E+001 -4.151699829E+001 -4.118999863E+001 3.269996643E-001
 1.125000000E+001 -4.022299957E+001 -4.007300186E+001 1.499977112E-001
 1.130000019E+001 -3.868399811E+001 -3.876300049E+001 -7.900238037E-002
 1.135000038E+001 -3.682400131E+001 -3.720399857E+001 -3.799972534E-001
 1.139999962E+001 -3.454199982E+001 -3.532500076E+001 -7.830009460E-001
 1.144999981E+001 -3.169199944E+001 -3.302999878E+001 -1.337999344E+000
 1.150000000E+001 -2.807299995E+001 -3.018600082E+001 -2.113000870E+000
 1.155000019E+001 -2.340999985E+001 -2.662000084E+001 -3.210000992E+000
 1.160000038E+001 -1.735099983E+001 -2.211100006E+001 -4.760000229E+000
 1.164999962E+001 -9.524000168E+000 -1.640299988E+001 -6.878999710E+000
 1.169999981E+001 2.360000014E-001 -9.284999847E+000 -9.520999908E+000
 1.175000000E+001 1.131499958E+001 -7.860000134E-001 -1.210099983E+001
 1.180000019E+001 2.164100075E+001 8.451000214E+000 -1.319000053E+001
 1.185000038E+001 2.839200020E+001 1.689599991E+001 -1.149600029E+001
 1.189999962E+001 3.077599907E+001 2.272800064E+001 -8.047998428E+000
 1.194999981E+001 3.067099953E+001 2.534099960E+001 -5.329999924E+000
 1.200000000E+001 2.967300034E+001 2.570599937E+001 -3.967000961E+000
 1.205000019E+001 2.819899940E+001 2.495800018E+001 -3.240999222E+000
 1.210000038E+001 2.639800072E+001 2.362199974E+001 -2.776000977E+000
 1.214999962E+001 2.436300087E+001 2.190600014E+001 -2.457000732E+000
 1.219999981E+001 2.215399933E+001 1.992499924E+001 -2.229000092E+000
 1.225000000E+001 1.981800079E+001 1.775499916E+001 -2.063001633E+000
 1.230000019E+001 1.739100075E+001 1.545199966E+001 -1.939001083E+000
 1.235000038E+001 1.490200043E+001 1.305500031E+001 -1.847000122E+000
 1.239999962E+001 1.237300014E+001 1.059599972E+001 -1.777000427E+000
 1.244999981E+001 9.821999550E+000 8.100000381E+000 -1.721999168E+000
 1.250000000E+001 7.264999866E+000 5.585999966E+000 -1.678999901E+000
 1.255000019E+001 4.711999893E+000 3.069000006E+000 -1.642999887E+000
 1.260000038E+001 2.171999931E+000 5.590000153E-001 -1.612999916E+000
 1.264999962E+001 -3.479999900E-001 -1.935999990E+000 -1.588000059E+000
 1.269999981E+001 -2.844000101E+000 -4.409999847E+000 -1.565999746E+000
 1.275000000E+001 -5.314000130E+000 -6.859000206E+000 -1.545000076E+000
 1.280000019E+001 -7.756999969E+000 -9.281999588E+000 -1.524999619E+000
 1.285000038E+001 -1.017300034E+001 -1.167899990E+001 -1.505999565E+000
 1.289999962E+001 -1.256299973E+001 -1.405000019E+001 -1.487000465E+000
 1.294999981E+001 -1.493099976E+001 -1.639999962E+001 -1.468999863E+000
 1.300000000E+001 -1.728000069E+001 -1.873299980E+001 -1.452999115E+000
 1.305000019E+001 -1.961800003E+001 -2.105500031E+001 -1.437000275E+000
 1.310000038E+001 -2.195400047E+001 -2.337700081E+001 -1.423000336E+000
 1.314999962E+001 -2.429800034E+001 -2.571199989E+001 -1.413999557E+000
 1.319999981E+001 -2.666699982E+001 -2.807500076E+001 -1.408000946E+000
 1.325000000E+001 -2.907999992E+001 -3.048800087E+001 -1.408000946E+000
 1.330000019E+001 -3.156200027E+001 -3.297600174E+001 -1.414001465E+000
 1.335000038E+001 -3.414400101E+001 -3.556900024E+001 -1.424999237E+000
 1.339999962E+001 -3.686100006E+001 -3.830300140E+001 -1.442001343E+000
 1.344999981E+001 -3.975600052E+001 -4.121500015E+001 -1.458999634E+000
 1.350000000E+001 -4.287099838E+001 -4.433900070E+001 -1.468002319E+000
 1.355000019E+001 -4.624399948E+001 -4.769699860E+001 -1.452999115E+000
 1.360000038E+001 -4.989099884E+001 -5.127899933E+001 -1.388000488E+000
 1.364999962E+001 -5.377899933E+001 -5.502199936E+001 -1.243000031E+000
 1.369999981E+001 -5.779600143E+001 -5.877899933E+001 -9.829978943E-001
 1.375000000E+001 -6.172100067E+001 -6.232199860E+001 -6.009979248E-001
 1.380000019E+001 -6.525700378E+001 -6.539099884E+001 -1.339950562E-001
 1.385000038E+001 -6.812899780E+001 -6.779399872E+001 3.349990845E-001
 1.389999962E+001 -7.021499634E+001 -6.949299622E+001 7.220001221E-001
 1.394999981E+001 -7.158399963E+001 -7.058399963E+001 1.000000000E+000
 1.400000000E+001 -7.240899658E+001 -7.122899628E+001 1.180000305E+000
 1.405000019E+001 -7.287100220E+001 -7.157499695E+001 1.296005249E+000
 1.410000038E+001 -7.310700226E+001 -7.173500061E+001 1.372001648E+000
 1.414999962E+001 -7.320899963E+001 -7.178199768E+001 1.427001953E+000
 1.419999981E+001 -7.323100281E+001 -7.176000214E+001 1.471000671E+000
 1.425000000E+001 -7.320600128E+001 -7.169799805E+001 1.508003235E+000
 1.430000019E+001 -7.315299988E+001 -7.161000061E+001 1.542999268E+000
 1.435000038E+001 -7.308200073E+001 -7.150599670E+001 1.576004028E+000
 1.439999962E+001 -7.299900055E+001 -7.139199829E+001 1.607002258E+000
 1.444999981E+001 -7.290799713E+001 -7.126999664E+001 1.638000488E+000
 1.450000000E+001 -7.281199646E+001 -7.114299774E+001 1.668998718E+000
 1.455000019E+001 -7.271199799E+001 -7.101200104E+001 1.699996948E+000
 1.460000038E+001 -7.260800171E+001 -7.087699890E+001 1.731002808E+000
 1.464999962E+001 -7.250199890E+001 -7.073999786E+001 1.762001038E+000
 1.469999981E+001 -7.239199829E+001 -7.059899902E+001 1.792999268E+000
 1.475000000E+001 -7.227999878E+001 -7.045700073E+001 1.822998047E+000
 1.480000019E+001 -7.216600037E+001 -7.031199646E+001 1.854003906E+000
 1.485000038E+001 -7.205000305E+001 -7.016400146E+001 1.886001587E+000
 1.489999962E+001 -7.193099976E+001 -7.001499939E+001 1.916000366E+000
 1.494999981E+001 -7.180999756E+001 -6.986299896E+001 1.946998596E+000
 1.500000000E+001 -7.168699646E+001 -6.970899963E+001 1.977996826E+000
 1.505000019E+001 -7.156199646E+001 -6.955400085E+001 2.007995605E+000
 1.510000038E+001 -7.143399811E+001 -6.939600372E+001 2.037994385E+000
 1.514999962E+001 -7.130500031E+001 -6.923600006E+001 2.069000244E+000
 1.519999981E+001 -7.117299652E+001 -6.907499695E+001 2.097999573E+000
 1.525000000E+001 -7.103900146E+001 -6.891100311E+001 2.127998352E+000
 1.530000019E+001 -7.090299988E+001 -6.874600220E+001 2.156997681E+000
 1.535000038E+001 -7.076399994E+001 -6.857800293E+001 2.185997009E+000
 1.539999962E+001 -7.062400055E+001 -6.840899658E+001 2.215003967E+000
 1.544999981E+001 -7.048200226E+001 -6.823899841E+001 2.243003845E+000
 1.550000000E+001 -7.033699799E+001 -6.806600189E+001 2.270996094E+000
 1.555000019E+001 -7.019000244E+001 -6.789199829E+001 2.298004150E+000
 1.560000038E+001 -7.004100037E+001 -6.771600342E+001 2.324996948E+000
 1.564999962E+001 -6.988999939E+001 -6.753800201E+001 2.351997375E+000
 1.569999981E+001 -6.973699951E+001 -6.735900116E+001 2.377998352E+000
 1.575000000E+001 -6.958200073E+001 -6.717900085E+001 2.402999878E+000
 1.580000019E+001 -6.942500305E+001 -6.699700165E+001 2.428001404E+000
 1.585000038E+001 -6.926599884E+001 -6.681300354E+001 2.452995300E+000
 1.589999962E+001 -6.910399628E+001 -6.662799835E+001 2.475997925E+000
 1.594999981E+001 -6.894100189E+001 -6.644200134E+001 2.499000549E+000
 1.600000000E+001 -6.877600098E+001 -6.625499725E+001 2.521003723E+000
 1.604999924E+001 -6.860900116E+001 -6.606700134E+001 2.541999817E+000
 1.610000038E+001 -6.844000244E+001 -6.587699890E+001 2.563003540E+000
 1.614999962E+001 -6.826899719E+001 -6.568599701E+001 2.583000183E+000
 1.620000076E+001 -6.809600067E+001 -6.549500275E+001 2.600997925E+000
 1.625000000E+001 -6.792099762E+001 -6.530200195E+001 2.618995667E+000
 1.629999924E+001 -6.774500275E+001 -6.510900116E+001 2.636001587E+000
 1.635000038E+001 -6.756700134E+001 -6.491400146E+001 2.652999878E+000
 1.639999962E+001 -6.738700104E+001 -6.471900177E+001 2.667999268E+000
 1.645000076E+001 -6.720600128E+001 -6.452400208E+001 2.681999207E+000
 1.650000000E+001 -6.702300262E+001 -6.432700348E+001 2.695999146E+000
 1.654999924E+001 -6.683799744E+001 -6.412999725E+001 2.708000183E+000
 1.660000038E+001 -6.665200043E+001 -6.393299866E+001 2.719001770E+000
 1.664999962E+001 -6.646399689E+001 -6.373500061E+001 2.728996277E+000
 1.670000076E+001 -6.627500153E+001 -6.353699875E+001 2.738002777E+000
 1.675000000E+001 -6.608499908E+001 -6.333900070E+001 2.745998383E+000
 1.679999924E+001 -6.589299774E+001 -6.313999939E+001 2.752998352E+000
 1.685000038E+001 -6.569999695E+001 -6.294200134E+001 2.757995605E+000
 1.689999962E+001 -6.550499725E+001 -6.274300003E+001 2.761997223E+000
 1.695000076E+001 -6.530999756E+001 -6.254399872E+001 2.765998840E+000
 1.700000000E+001 -6.511299896E+001 -6.234600067E+001 2.766998291E+000
 1.704999924E+001 -6.491600037E+001 -6.214699936E+001 2.769001007E+000
 1.710000038E+001 -6.471700287E+001 -6.194900131E+001 2.768001556E+000
 1.714999962E+001 -6.451799774E+001 -6.175000000E+001 2.767997742E+000
 1.720000076E+001 -6.431700134E+001 -6.155300140E+001 2.763999939E+000
 1.725000000E+001 -6.411599731E+001 -6.135499954E+001 2.760997772E+000
 1.729999924E+001 -6.391400146E+001 -6.115800095E+001 2.756000519E+000
 1.735000038E+001 -6.371200180E+001 -6.096200180E+001 2.750000000E+000
 1.739999962E+001 -6.350899887E+001 -6.076599884E+001 2.743000031E+000
 1.745000076E+001 -6.330500031E+001 -6.056999969E+001 2.735000610E+000
 1.750000000E+001 -6.310100174E+001 -6.037500000E+001 2.726001740E+000
 1.754999924E+001 -6.289599991E+001 -6.018099976E+001 2.715000153E+000
 1.760000038E+001 -6.269100189E+001 -5.998799896E+001 2.703002930E+000
 1.764999962E+001 -6.248600006E+001 -5.979499817E+001 2.691001892E+000
 1.770000076E+001 -6.228099823E+001 -5.960300064E+001 2.677997589E+000
 1.775000000E+001 -6.207500076E+001 -5.941199875E+001 2.663002014E+000
 1.779999924E+001 -6.186899948E+001 -5.922200012E+001 2.646999359E+000
 1.785000038E+001 -6.166299820E+001 -5.903300095E+001 2.629997253E+000
 1.789999962E+001 -6.145800018E+001 -5.884500122E+001 2.612998962E+000
 1.795000076E+001 -6.125199890E+001 -5.865700150E+001 2.594997406E+000
 1.800000000E+001 -6.104600143E+001 -5.847100067E+001 2.575000763E+000
 1.804999924E+001 -6.084099960E+001 -5.828499985E+001 2.555999756E+000
 1.810000038E+001 -6.063499832E+001 -5.810100174E+001 2.533996582E+000
 1.814999962E+001 -6.043000031E+001 -5.791799927E+001 2.512001038E+000
 1.820000076E+001 -6.022600174E+001 -5.773500061E+001 2.491001129E+000
 1.825000000E+001 -6.002099991E+001 -5.755400085E+001 2.466999054E+000
 1.829999924E+001 -5.981700134E+001 -5.737300110E+001 2.444000244E+000
 1.835000038E+001 -5.961399841E+001 -5.719400024E+001 2.419998169E+000
 1.839999962E+001 -5.940999985E+001 -5.701599884E+001 2.394001007E+000
 1.845000076E+001 -5.920800018E+001 -5.683800125E+001 2.369998932E+000
 1.850000000E+001 -5.900500107E+001 -5.666199875E+001 2.343002319E+000
 1.854999924E+001 -5.880400085E+001 -5.648600006E+001 2.318000793E+000
 1.860000038E+001 -5.860200119E+001 -5.631100082E+001 2.291000366E+000
 1.864999962E+001 -5.840200043E+001 -5.613800049E+001 2.263999939E+000
 1.870000076E+001 -5.820100021E+001 -5.596500015E+001 2.236000061E+000
 1.875000000E+001 -5.800199890E+001 -5.579299927E+001 2.208999634E+000
 1.879999924E+001 -5.780199814E+001 -5.562200165E+001 2.179996490E+000
 1.885000038E+001 -5.760300064E+001 -5.545100021E+001 2.152000427E+000
 1.889999962E+001 -5.740499878E+001 -5.528099823E+001 2.124000549E+000
 1.895000076E+001 -5.720700073E+001 -5.511199951E+001 2.095001221E+000
 1.900000000E+001 -5.700999832E+001 -5.494300079E+001 2.066997528E+000
 1.904999924E+001 -5.681299973E+001 -5.477500153E+001 2.037998199E+000
 1.910000038E+001 -5.661600113E+001 -5.460699844E+001 2.009002686E+000
 1.914999962E+001 -5.641999817E+001 -5.443999863E+001 1.979999542E+000
 1.920000076E+001 -5.622299957E+001 -5.427299881E+001 1.950000763E+000
 1.925000000E+001 -5.602700043E+001 -5.410599899E+001 1.921001434E+000
 1.929999924E+001 -5.583100128E+001 -5.393899918E+001 1.892002106E+000
 1.935000038E+001 -5.563499832E+001 -5.377199936E+001 1.862998962E+000
 1.939999962E+001 -5.543799973E+001 -5.360599899E+001 1.832000732E+000
 1.945000076E+001 -5.524200058E+001 -5.343899918E+001 1.803001404E+000
 1.950000000E+001 -5.504499817E+001 -5.327099991E+001 1.773998260E+000
 1.954999924E+001 -5.484799957E+001 -5.310300064E+001 1.744998932E+000
 1.960000038E+001 -5.465000153E+001 -5.293500137E+001 1.715000153E+000
 1.964999962E+001 -5.445100021E+001 -5.276599884E+001 1.685001373E+000
 1.970000076E+001 -5.425099945E+001 -5.259600067E+001 1.654998779E+000
 1.975000000E+001 -5.404999924E+001 -5.242499924E+001 1.625000000E+000
 1.979999924E+001 -5.384799957E+001 -5.225299835E+001 1.595001221E+000
 1.985000038E+001 -5.364300156E+001 -5.207899857E+001 1.564002991E+000
 1.989999962E+001 -5.343799973E+001 -5.190399933E+001 1.534000397E+000
 1.995000076E+001 -5.322900009E+001 -5.172600174E+001 1.502998352E+000
 2.000000000E+001 -5.301900101E+001 -5.154700089E+001 1.472000122E+000
 2.004999924E+001 -5.280599976E+001 -5.136500168E+001 1.440998077E+000
 2.010000038E+001 -5.258900070E+001 -5.118099976E+001 1.408000946E+000
 2.014999962E+001 -5.236899948E+001 -5.099300003E+001 1.375999451E+000
 2.020000076E+001 -5.214400101E+001 -5.080199814E+001 1.342002869E+000
 2.025000000E+001 -5.191500092E+001 -5.060699844E+001 1.308002472E+000
 2.029999924E+001 -5.168099976E+001 -5.040700150E+001 1.273998260E+000
 2.035000038E+001 -5.144100189E+001 -5.020299911E+001 1.238002777E+000
 2.039999962E+001 -5.119400024E+001 -4.999399948E+001 1.200000763E+000
 2.045000076E+001 -5.093999863E+001 -4.977799988E+001 1.161998749E+000
 2.050000000E+001 -5.067699814E+001 -4.955500031E+001 1.121997833E+000
 2.054999924E+001 -5.040399933E+001 -4.932500076E+001 1.078998566E+000
 2.060000038E+001 -5.012099838E+001 -4.908700180E+001 1.033996582E+000
 2.064999962E+001 -4.982500076E+001 -4.883800125E+001 9.869995117E-001
 2.070000076E+001 -4.951499939E+001 -4.857899857E+001 9.360008240E-001
 2.075000000E+001 -4.918899918E+001 -4.830699921E+001 8.819999695E-001
 2.079999924E+001 -4.884500122E+001 -4.802099991E+001 8.240013123E-001
 2.085000038E+001 -4.847900009E+001 -4.772000122E+001 7.589988708E-001